 &FCI NORB=  15,NELEC= 2,MS2=0,
  ORBSYM=1,1,1,1,1,1,1,1,1,1,1,1,1,1,1,
  ISYM=1,
 &END
 0.4772539832015226    1    1    1    1
 -0.04341428270932429    1    1    2    1
 0.1695989127357861    1    1    2    2
 0.1796656739075206    1    1    3    3
 0.1796656739075205    1    1    4    4
 -0.08417969426336881    1    1    5    1
 0.03459088722050169    1    1    5    2
 0.2190490328476065    1    1    5    5
 -0.02110200748774985    1    1    6    1
 -0.03100842876523733    1    1    6    2
 0.01637783854012488    1    1    6    5
 0.1831853338326598    1    1    6    6
 0.04469260852963223    1    1    7    3
 -0.003810196658942713    1    1    7    4
 0.2232044702384414    1    1    7    7
 0.003810196658942721    1    1    8    3
 0.04469260852963221    1    1    8    4
 0.2232044702384416    1    1    8    8
 -0.05837759210435781    1    1    9    1
 0.038169090139075    1    1    9    2
 0.03215200012511479    1    1    9    5
 -0.004216446629149623    1    1    9    6
 0.3039426261508877    1    1    9    9
 0.0262502751505952    1    1   10    3
 0.02029043548568705    1    1   10    4
 0.03371407116313285    1    1   10    7
 0.03097507822961605    1    1   10    8
 0.3055636527090925    1    1   10   10
 -0.020290435485687    1    1   11    3
 0.0262502751505952    1    1   11    4
 -0.03097507822961603    1    1   11    7
 0.03371407116313294    1    1   11    8
 0.3055636527090926    1    1   11   11
 0.2650450290926325    1    1   12   12
 -1.07854467488503e-15    1    1   13   11
 0.2650450290926327    1    1   13   13
 -0.02252466296040278    1    1   14    1
 0.0006057772553041049    1    1   14    2
 0.03079427304226598    1    1   14    5
 -0.004511284111940215    1    1   14    6
 -0.03967428345367269    1    1   14    9
 0.312550947602304    1    1   14   14
 0.09081867314764142    1    1   15    1
 -0.01624241285397259    1    1   15    2
 -0.06710937170591813    1    1   15    5
 -0.01612903149844784    1    1   15    6
 -0.07074362823535651    1    1   15    9
 -0.02323768990326359    1    1   15   14
 0.5322202272469214    1    1   15   15
 -0.04341428270932431    2    1    1    1
 0.009420978177272863    2    1    2    1
 0.007936055795404056    2    1    2    2
 0.002677081543642304    2    1    3    3
 0.0026770815436423    2    1    4    4
 0.01272734915852512    2    1    5    1
 -0.001075654080323916    2    1    5    2
 -0.009477710787910742    2    1    5    5
 0.0005541451939382667    2    1    6    1
 -0.003277001587996939    2    1    6    2
 -0.006281905491673387    2    1    6    5
 0.007232635526214106    2    1    6    6
 0.00178395874528858    2    1    7    3
 -0.0001520885415869944    2    1    7    4
 0.004648495205183138    2    1    7    7
 0.0001520885415869943    2    1    8    3
 0.001783958745288579    2    1    8    4
 0.004648495205183144    2    1    8    8
 0.01766705376075538    2    1    9    1
 -0.006242633856338786    2    1    9    2
 -0.002849854040895081    2    1    9    5
 0.001279301414727695    2    1    9    6
 -0.009367194090598906    2    1    9    9
 -0.004581243261384261    2    1   10    3
 -0.003541121771336861    2    1   10    4
 -0.006012385322085254    2    1   10    7
 -0.005523928118827647    2    1   10    8
 -0.003467504164751525    2    1   10   10
 0.003541121771336862    2    1   11    3
 -0.004581243261384253    2    1   11    4
 0.00552392811882765    2    1   11    7
 -0.006012385322085261    2    1   11    8
 -0.003467504164751531    2    1   11   11
 0.006227864178714655    2    1   12   12
 0.006227864178714649    2    1   13   13
 -0.0005034648256739972    2    1   14    1
 0.001660994420628201    2    1   14    2
 -0.003172231286344587    2    1   14    5
 0.0002195628130688277    2    1   14    6
 0.01337708461003727    2    1   14    9
 -0.01134938383509269    2    1   14   14
 -0.01681960063419645    2    1   15    1
 0.003085407055839077    2    1   15    2
 0.01214787401210897    2    1   15    5
 0.003137365692357065    2    1   15    6
 0.0113119183844159    2    1   15    9
 0.009709453107063901    2    1   15   14
 -0.05695032576731467    2    1   15   15
 0.169598912735786    2    2    1    1
 0.007936055795404056    2    2    2    1
 0.2288854897438138    2    2    2    2
 0.1697025047498171    2    2    3    3
 0.169702504749817    2    2    4    4
 -0.006303136001042145    2    2    5    1
 0.008955300144430495    2    2    5    2
 0.1451433508699189    2    2    5    5
 -0.01159114545414338    2    2    6    1
 -0.04010654850525834    2    2    6    2
 -0.03115867420844133    2    2    6    5
 0.2122206379483687    2    2    6    6
 0.03444607553644792    2    2    7    3
 -0.002936644922742494    2    2    7    4
 0.1966110418474661    2    2    7    7
 0.002936644922742477    2    2    8    3
 0.03444607553644791    2    2    8    4
 0.1966110418474662    2    2    8    8
 0.01395388965656435    2    2    9    1
 -0.02409253761327859    2    2    9    2
 0.00985411932744203    2    2    9    5
 0.0171652320137432    2    2    9    6
 0.2000109416598852    2    2    9    9
 -0.0147266590790502    2    2   10    3
 -0.01138313119572762    2    2   10    4
 -0.01985971427253661    2    2   10    7
 -0.01824627468551858    2    2   10    8
 0.2253963319990371    2    2   10   10
 0.01138313119572767    2    2   11    3
 -0.01472665907905014    2    2   11    4
 0.01824627468551861    2    2   11    7
 -0.01985971427253662    2    2   11    8
 0.2253963319990372    2    2   11   11
 0.2214872546432693    2    2   12   12
 0.2214872546432694    2    2   13   13
 -0.006039609226253615    2    2   14    1
 -0.00427627788373547    2    2   14    2
 -0.0009288366206105852    2    2   14    5
 0.02057561670487424    2    2   14    6
 0.03468830144637938    2    2   14    9
 0.2134603520556353    2    2   14   14
 0.005092133711261923    2    2   15    1
 -0.008049818653372181    2    2   15    2
 -0.001068636275455687    2    2   15    5
 0.004269799997493325    2    2   15    6
 0.006123285728361195    2    2   15    9
 0.02226158368749623    2    2   15   14
 0.1696702791809707    2    2   15   15
 0.009064716624680013    3    1    3    1
 0.008990434834071945    3    1    3    2
 0.009063797454397001    3    1    5    3
 0.004556194808845968    3    1    6    3
 0.007923524920657333    3    1    7    1
 0.004629095155829457    3    1    7    2
 0.0004813740567766872    3    1    7    5
 -0.009181125954072798    3    1    7    6
 0.0006755074087859802    3    1    8    1
 0.000394646083031268    3    1    8    2
 4.103877314782226e-05    3    1    8    5
 -0.0007827221678579618    3    1    8    6
 0.006275517142537643    3    1    9    3
 0.01119186498740114    3    1    9    7
 0.000954144499175085    3    1    9    8
 0.01070179762368742    3    1   10    1
 -0.003639405553029754    3    1   10    2
 -0.001229335842537234    3    1   10    5
 0.002822770225965871    3    1   10    6
 0.007199933392265804    3    1   10    9
 -0.008272070788537419    3    1   11    1
 0.002813118078052867    3    1   11    2
 0.0009502285008497827    3    1   11    5
 -0.002181890926182537    3    1   11    6
 -0.005565266769925668    3    1   11    9
 -0.0006124511806162636    3    1   12    3
 0.008630847159745538    3    1   12    4
 -0.001838583680590315    3    1   12    7
 0.01169843597235196    3    1   12    8
 0.0025081014190753    3    1   12   10
 0.003768760546899758    3    1   12   11
 -0.008630847159745551    3    1   13    3
 -0.0006124511806162707    3    1   13    4
 -0.01169843597235195    3    1   13    7
 -0.001838583680590308    3    1   13    8
 -0.003768760546899752    3    1   13   10
 0.0025081014190753    3    1   13   11
 3.514934027078734e-05    3    1   14    3
 0.00406464703633003    3    1   14    7
 0.0003465249639062345    3    1   14    8
 -0.003511695123840052    3    1   14   10
 0.002714402913756225    3    1   14   11
 0.0002644270823716006    3    1   15    3
 -0.00148514664473939    3    1   15    7
 -0.0001266137952112217    3    1   15    8
 -0.005916183613042182    3    1   15   10
 0.004572978425301927    3    1   15   11
 0.008990434834071945    3    2    3    1
 0.02575077503229943    3    2    3    2
 0.009510736041044516    3    2    5    3
 0.007574384850904013    3    2    6    3
 0.007184116384826559    3    2    7    1
 0.009535100308188393    3    2    7    2
 0.005334682806838856    3    2    7    5
 -0.02073995892055534    3    2    7    6
 0.0006124703199808305    3    2    8    1
 0.0008128996836882907    3    2    8    2
 0.0004547998265453602    3    2    8    5
 -0.001768151933519742    3    2    8    6
 0.005838514654792703    3    2    9    3
 0.01205932634020771    3    2    9    7
 0.0010280985255111    3    2    9    8
 0.004243522413423818    3    2   10    1
 -0.01219240163326028    3    2   10    2
 -0.002628717947488958    3    2   10    5
 0.01020708138258046    3    2   10    6
 0.008569864255928341    3    2   10    9
 -0.003280076771297788    3    2   11    1
 0.00942424935875933    3    2   11    2
 0.002031896108425475    3    2   11    5
 -0.007889674493019923    3    2   11    6
 -0.006624169720448299    3    2   11    9
 -0.0009782186273915362    3    2   12    3
 0.01378535257836718    3    2   12    4
 -0.002806273791484225    3    2   12    7
 0.01785559972991118    3    2   12    8
 -0.002050747003959635    3    2   12   10
 -0.003081523873562265    3    2   12   11
 -0.01378535257836719    3    2   13    3
 -0.0009782186273915477    3    2   13    4
 -0.01785559972991117    3    2   13    7
 -0.002806273791484208    3    2   13    8
 0.003081523873562273    3    2   13   10
 -0.00205074700395964    3    2   13   11
 0.002992591299068122    3    2   14    3
 0.008045914032077221    3    2   14    7
 0.0006859414961835398    3    2   14    8
 -0.001668682461234088    3    2   14   10
 0.001289826244926048    3    2   14   11
 0.003881005316593659    3    2   15    3
 0.001344282116930098    3    2   15    7
 0.0001146046158215939    3    2   15    8
 -0.002894147984480654    3    2   15   10
 0.002237063140414523    3    2   15   11
 0.1796656739075206    3    3    1    1
 0.002677081543642314    3    3    2    1
 0.1697025047498171    3    3    2    2
 0.1756497140484253    3    3    3    3
 0.1542137105600251    3    3    4    4
 -0.003939682679843702    3    3    5    1
 0.01375610175130343    3    3    5    2
 0.1472859427941113    3    3    5    5
 -0.005294241420374882    3    3    6    1
 -0.01908007838958307    3    3    6    2
 -0.003044599963312603    3    3    6    5
 0.1684480831943675    3    3    6    6
 0.02408715298873007    3    3    7    3
 -0.001958842299490316    3    3    7    4
 0.183601879895278    3    3    7    7
 0.002053511595329018    3    3    8    3
 0.02297670695210213    3    3    8    4
 0.001302532953524104    3    3    8    7
 0.1684345549747466    3    3    8    8
 0.01068621549724452    3    3    9    1
 0.002181357241359409    3    3    9    2
 0.01089251990858283    3    3    9    5
 0.001546095627945041    3    3    9    6
 0.1828126772444311    3    3    9    9
 8.39779022859217e-05    3    3   10    3
 3.264510368320003e-05    3    3   10    4
 -0.001244451100303337    3    3   10    7
 -0.001038319940703253    3    3   10    8
 0.1954713469164415    3    3   10   10
 -6.491163230785155e-05    3    3   11    3
 4.223383744561809e-05    3    3   11    4
 0.001124977740802108    3    3   11    7
 -0.001110137690099726    3    3   11    8
 -0.006275314668428983    3    3   11   10
 0.1922033783821749    3    3   11   11
 -0.0003710631449047396    3    3   12    1
 -0.000481239864061181    3    3   12    2
 -0.0002854438316887297    3    3   12    5
 0.0002569822425565728    3    3   12    6
 -0.0005930965611480152    3    3   12    9
 0.2005080033008027    3    3   12   12
 -0.005229133997365755    3    3   13    1
 -0.006781777626274477    3    3   13    2
 -0.004022560755811739    3    3   13    5
 0.003621471438821639    3    3   13    6
 -0.008358096011976573    3    3   13    9
 0.2005080033008027    3    3   13   13
 -0.005164064028549799    3    3   14    1
 0.00327000425481392    3    3   14    2
 0.002241217707412015    3    3   14    5
 -0.00184741905284725    3    3   14    6
 0.01059754913236684    3    3   14    9
 -0.0002883665918304026    3    3   14   12
 -0.004063749175176067    3    3   14   13
 0.1818466323928124    3    3   14   14
 0.001059606410774003    3    3   15    1
 0.001665543912876473    3    3   15    2
 -0.002070674520800078    3    3   15    5
 0.000182071438207209    3    3   15    6
 -0.001134712173250708    3    3   15    9
 -0.000112850597694557    3    3   15   12
 -0.001590324733487474    3    3   15   13
 0.00864770295901305    3    3   15   14
 0.1753868843152964    3    3   15   15
 0.009064716624680001    4    1    4    1
 0.008990434834071932    4    1    4    2
 0.009063797454396994    4    1    5    4
 0.004556194808845973    4    1    6    4
 -0.0006755074087859787    4    1    7    1
 -0.0003946460830312739    4    1    7    2
 -4.103877314782936e-05    4    1    7    5
 0.0007827221678579519    4    1    7    6
 0.007923524920657329    4    1    8    1
 0.004629095155829457    4    1    8    2
 0.0004813740567766915    4    1    8    5
 -0.009181125954072798    4    1    8    6
 0.006275517142537624    4    1    9    4
 -0.0009541444991750797    4    1    9    7
 0.01119186498740112    4    1    9    8
 0.008272070788537417    4    1   10    1
 -0.002813118078052863    4    1   10    2
 -0.0009502285008497827    4    1   10    5
 0.002181890926182542    4    1   10    6
 0.005565266769925669    4    1   10    9
 0.01070179762368741    4    1   11    1
 -0.003639405553029745    4    1   11    2
 -0.001229335842537231    4    1   11    5
 0.002822770225965869    4    1   11    6
 0.007199933392265804    4    1   11    9
 0.00863084715974554    4    1   12    3
 0.0006124511806162762    4    1   12    4
 0.01169843597235193    4    1   12    7
 0.001838583680590314    4    1   12    8
 0.00376876054689975    4    1   12   10
 -0.002508101419075294    4    1   12   11
 -0.0006124511806162681    4    1   13    3
 0.008630847159745532    4    1   13    4
 -0.001838583680590324    4    1   13    7
 0.01169843597235195    4    1   13    8
 0.002508101419075297    4    1   13   10
 0.003768760546899757    4    1   13   11
 3.514934027078445e-05    4    1   14    4
 -0.0003465249639062333    4    1   14    7
 0.004064647036330037    4    1   14    8
 -0.002714402913756223    4    1   14   10
 -0.003511695123840043    4    1   14   11
 0.0002644270823716011    4    1   15    4
 0.0001266137952112178    4    1   15    7
 -0.001485146644739387    4    1   15    8
 -0.004572978425301925    4    1   15   10
 -0.005916183613042175    4    1   15   11
 0.00899043483407193    4    2    4    1
 0.0257507750322994    4    2    4    2
 0.009510736041044495    4    2    5    4
 0.007574384850904003    4    2    6    4
 -0.000612470319980834    4    2    7    1
 -0.0008128996836883165    4    2    7    2
 -0.0004547998265453706    4    2    7    5
 0.001768151933519717    4    2    7    6
 0.007184116384826562    4    2    8    1
 0.009535100308188424    4    2    8    2
 0.005334682806838872    4    2    8    5
 -0.02073995892055527    4    2    8    6
 0.005838514654792706    4    2    9    4
 -0.001028098525511089    4    2    9    7
 0.01205932634020766    4    2    9    8
 0.00328007677129779    4    2   10    1
 -0.00942424935875932    4    2   10    2
 -0.002031896108425472    4    2   10    5
 0.007889674493019928    4    2   10    6
 0.006624169720448302    4    2   10    9
 0.00424352241342382    4    2   11    1
 -0.01219240163326027    4    2   11    2
 -0.002628717947488953    4    2   11    5
 0.01020708138258043    4    2   11    6
 0.008569864255928341    4    2   11    9
 0.01378535257836718    4    2   12    3
 0.0009782186273915553    4    2   12    4
 0.01785559972991115    4    2   12    7
 0.002806273791484216    4    2   12    8
 -0.003081523873562271    4    2   12   10
 0.002050747003959634    4    2   12   11
 -0.0009782186273915418    4    2   13    3
 0.01378535257836717    4    2   13    4
 -0.002806273791484235    4    2   13    7
 0.01785559972991117    4    2   13    8
 -0.002050747003959631    4    2   13   10
 -0.003081523873562264    4    2   13   11
 0.002992591299068112    4    2   14    4
 -0.0006859414961835408    4    2   14    7
 0.008045914032077221    4    2   14    8
 -0.001289826244926054    4    2   14   10
 -0.001668682461234096    4    2   14   11
 0.003881005316593653    4    2   15    4
 -0.0001146046158215985    4    2   15    7
 0.001344282116930099    4    2   15    8
 -0.002237063140414522    4    2   15   10
 -0.002894147984480651    4    2   15   11
 0.01071800174420003    4    3    4    3
 -4.733464791935419e-05    4    3    7    3
 0.0005552230183140009    4    3    7    4
 -0.001302532953524106    4    3    7    7
 0.0005552230183140185    4    3    8    3
 4.733464791937741e-05    4    3    8    4
 0.007583662460265605    4    3    8    7
 0.001302532953524145    4    3    8    8
 1.613326431235307e-05    4    3   10    3
 2.087203242016612e-05    4    3   10    4
 -4.332890004942537e-05    4    3   10    7
 -6.715670510180921e-05    4    3   10    8
 0.006275314668429014    4    3   10   10
 2.087203242016889e-05    4    3   11    3
 -1.613326431235255e-05    4    3   11    4
 -6.715670510180202e-05    4    3   11    7
 4.332890004942212e-05    4    3   11    8
 0.001633984267133372    4    3   11   10
 -0.006275314668428959    4    3   11   11
 0.005229133997365758    4    3   12    1
 0.006781777626274471    4    3   12    2
 0.004022560755811735    4    3   12    5
 -0.003621471438821679    4    3   12    6
 0.008358096011976603    4    3   12    9
 -0.0003710631449047398    4    3   13    1
 -0.0004812398640611834    4    3   13    2
 -0.0002854438316887311    4    3   13    5
 0.0002569822425565669    4    3   13    6
 -0.0005930965611480109    4    3   13    9
 0.004063749175176046    4    3   14   12
 -0.0002883665918304078    4    3   14   13
 0.001590324733487477    4    3   15   12
 -0.0001128505976945567    4    3   15   13
 0.1796656739075204    4    4    1    1
 0.002677081543642297    4    4    2    1
 0.169702504749817    4    4    2    2
 0.1542137105600252    4    4    3    3
 0.175649714048425    4    4    4    4
 -0.003939682679843693    4    4    5    1
 0.0137561017513034    4    4    5    2
 0.1472859427941112    4    4    5    5
 -0.005294241420374888    4    4    6    1
 -0.01908007838958303    4    4    6    2
 -0.003044599963312539    4    4    6    5
 0.1684480831943673    4    4    6    6
 0.02297670695210211    4    4    7    3
 -0.002053511595329051    4    4    7    4
 0.1684345549747462    4    4    7    7
 0.001958842299490302    4    4    8    3
 0.02408715298873017    4    4    8    4
 -0.001302532953524218    4    4    8    7
 0.1836018798952776    4    4    8    8
 0.01068621549724453    4    4    9    1
 0.002181357241359455    4    4    9    2
 0.0108925199085829    4    4    9    5
 0.001546095627945106    4    4    9    6
 0.1828126772444308    4    4    9    9
 4.223383744559434e-05    4    4   10    3
 6.491163230791129e-05    4    4   10    4
 -0.001110137690099744    4    4   10    7
 -0.001124977740802099    4    4   10    8
 0.1922033783821746    4    4   10   10
 -3.264510368315298e-05    4    4   11    3
 8.397790228595586e-05    4    4   11    4
 0.00103831994070327    4    4   11    7
 -0.001244451100303317    4    4   11    8
 0.006275314668428983    4    4   11   10
 0.1954713469164415    4    4   11   11
 0.0003710631449047433    4    4   12    1
 0.000481239864061186    4    4   12    2
 0.0002854438316887319    4    4   12    5
 -0.0002569822425565793    4    4   12    6
 0.0005930965611480224    4    4   12    9
 0.2005080033008025    4    4   12   12
 0.005229133997365748    4    4   13    1
 0.006781777626274467    4    4   13    2
 0.004022560755811731    4    4   13    5
 -0.003621471438821633    4    4   13    6
 0.008358096011976559    4    4   13    9
 0.2005080033008025    4    4   13   13
 -0.005164064028549754    4    4   14    1
 0.003270004254813933    4    4   14    2
 0.00224121770741187    4    4   14    5
 -0.001847419052847066    4    4   14    6
 0.01059754913236696    4    4   14    9
 0.0002883665918304071    4    4   14   12
 0.004063749175176061    4    4   14   13
 0.181846632392812    4    4   14   14
 0.001059606410773982    4    4   15    1
 0.001665543912876499    4    4   15    2
 -0.002070674520800071    4    4   15    5
 0.0001820714382072489    4    4   15    6
 -0.001134712173250868    4    4   15    9
 0.0001128505976945582    4    4   15   12
 0.00159032473348747    4    4   15   13
 0.008647702959013209    4    4   15   14
 0.1753868843152961    4    4   15   15
 -0.0841796942633688    5    1    1    1
 0.01272734915852512    5    1    2    1
 -0.006303136001042162    5    1    2    2
 -0.003939682679843705    5    1    3    3
 -0.003939682679843695    5    1    4    4
 0.02846475287488837    5    1    5    1
 -0.005825307806916594    5    1    5    2
 -0.01460511719838404    5    1    5    5
 0.00654827143229984    5    1    6    1
 0.002226863647360514    5    1    6    2
 -0.0006391862444086621    5    1    6    5
 -0.006778107521018675    5    1    6    6
 -0.005534097808773669    5    1    7    3
 0.0004718006326990523    5    1    7    4
 -0.01359547216267746    5    1    7    7
 -0.0004718006326990602    5    1    8    3
 -0.005534097808773663    5    1    8    4
 -0.01359547216267746    5    1    8    8
 0.01979501814126856    5    1    9    1
 -0.006904614157935625    5    1    9    2
 -0.008357842231509007    5    1    9    5
 -0.0002501959972422349    5    1    9    6
 -0.0306178323922479    5    1    9    9
 -0.004699579931075985    5    1   10    3
 -0.003632591386348368    5    1   10    4
 -0.007753696530819107    5    1   10    7
 -0.007123772013433296    5    1   10    8
 -0.031144631919973    5    1   10   10
 0.003632591386348368    5    1   11    3
 -0.004699579931075981    5    1   11    4
 0.007123772013433296    5    1   11    7
 -0.007753696530819117    5    1   11    8
 -0.03114463191997302    5    1   11   11
 -0.01665972216060623    5    1   12   12
 -0.01665972216060621    5    1   13   13
 0.01076740224744829    5    1   14    1
 -0.0009729713017010526    5    1   14    2
 -0.008844030076564645    5    1   14    5
 -0.0008287114862359816    5    1   14    6
 0.009162402360904716    5    1   14    9
 -0.03449516967831998    5    1   14   14
 -0.03763097756445494    5    1   15    1
 0.008185950920380379    5    1   15    2
 0.02008042193043329    5    1   15    5
 0.004198654619572933    5    1   15    6
 0.02506618825822706    5    1   15    9
 0.0057270241558609    5    1   15   14
 -0.1072726431256687    5    1   15   15
 0.0345908872205017    5    2    1    1
 -0.001075654080323911    5    2    2    1
 0.008955300144430516    5    2    2    2
 0.01375610175130341    5    2    3    3
 0.01375610175130339    5    2    4    4
 -0.005825307806916588    5    2    5    1
 0.01083579277809551    5    2    5    2
 0.0115191325111726    5    2    5    5
 -0.003471065631204307    5    2    6    1
 -0.01299823849257578    5    2    6    2
 0.001134847919931316    5    2    6    5
 0.01808362223360254    5    2    6    6
 0.009521147361271298    5    2    7    3
 -0.0008117101475776333    5    2    7    4
 0.02475624326474289    5    2    7    7
 0.0008117101475776398    5    2    8    3
 0.009521147361271291    5    2    8    4
 0.02475624326474291    5    2    8    8
 0.0006876837752922666    5    2    9    1
 0.004674036218396995    5    2    9    2
 0.002920549620086125    5    2    9    5
 0.001271319527143767    5    2    9    6
 0.02745242606259424    5    2    9    9
 0.0009482481621035866    5    2   10    3
 0.0007329587231830591    5    2   10    4
 -0.0001877236137653131    5    2   10    7
 -0.0001724726033171967    5    2   10    8
 0.03215639996819015    5    2   10   10
 -0.0007329587231830568    5    2   11    3
 0.0009482481621035937    5    2   11    4
 0.0001724726033172014    5    2   11    7
 -0.0001877236137653108    5    2   11    8
 0.03215639996819016    5    2   11   11
 0.03288094062921945    5    2   12   12
 0.03288094062921948    5    2   13   13
 -0.003430980860510998    5    2   14    1
 -0.0006925978403042558    5    2   14    2
 0.002830145232953603    5    2   14    5
 -0.0007767387760731664    5    2   14    6
 0.003885144595724112    5    2   14    9
 0.02936618535765079    5    2   14   14
 0.007334301822029985    5    2   15    1
 7.095095067815216e-05    5    2   15    2
 -0.004481099945363098    5    2   15    5
 0.0001139963819221741    5    2   15    6
 -0.005082301874769872    5    2   15    9
 0.00289036390440485    5    2   15   14
 0.03725566183598297    5    2   15   15
 0.009063797454397003    5    3    3    1
 0.009510736041044512    5    3    3    2
 0.01459108473571145    5    3    5    3
 0.007166494637944488    5    3    6    3
 0.005345711420832046    5    3    7    1
 0.005022264625185624    5    3    7    2
 -0.001776671847154813    5    3    7    5
 -0.0101779776076385    5    3    7    6
 0.0004557400533428601    5    3    8    1
 0.0004281651155474818    5    3    8    2
 -0.0001514673087738636    5    3    8    5
 -0.0008677071567596344    5    3    8    6
 0.005972057963792195    5    3    9    3
 0.01063062819066375    5    3    9    7
 0.0009062971562215671    5    3    9    8
 0.006405085614419328    5    3   10    1
 -0.003449210620339265    5    3   10    2
 -0.0001258831071549935    5    3   10    5
 0.004035622817142816    5    3   10    6
 0.00580081772090019    5    3   10    9
 -0.004950880541026659    5    3   11    1
 0.002666104837645996    5    3   11    2
 9.730271586918821e-05    5    3   11    5
 -0.003119378518740821    5    3   11    6
 -0.00448380510508617    5    3   11    9
 -0.0006149920916604849    5    3   12    3
 0.008666654446208942    5    3   12    4
 -0.001678173576167264    5    3   12    7
 0.01067778765717227    5    3   12    8
 0.001168395083237335    5    3   12   10
 0.001755671146073513    5    3   12   11
 -0.008666654446208955    5    3   13    3
 -0.0006149920916604919    5    3   13    4
 -0.01067778765717227    5    3   13    7
 -0.001678173576167257    5    3   13    8
 -0.001755671146073508    5    3   13   10
 0.001168395083237333    5    3   13   11
 -0.001302188078933113    5    3   14    3
 0.00500987854938068    5    3   14    7
 0.0004271091605204262    5    3   14    8
 -0.002227557394687238    5    3   14   10
 0.001721814699018179    5    3   14   11
 0.002271963926703654    5    3   15    3
 -0.0008330562389243863    5    3   15    7
 -7.102087353340895e-05    5    3   15    8
 -0.003870108527492939    5    3   15   10
 0.002991442449620275    5    3   15   11
 0.009063797454396992    5    4    4    1
 0.009510736041044495    5    4    4    2
 0.01459108473571144    5    4    5    4
 0.00716649463794449    5    4    6    4
 -0.000455740053342866    5    4    7    1
 -0.0004281651155474907    5    4    7    2
 0.0001514673087738529    5    4    7    5
 0.0008677071567596222    5    4    7    6
 0.005345711420832053    5    4    8    1
 0.005022264625185634    5    4    8    2
 -0.001776671847154802    5    4    8    5
 -0.01017797760763849    5    4    8    6
 0.00597205796379218    5    4    9    4
 -0.0009062971562215709    5    4    9    7
 0.01063062819066377    5    4    9    8
 0.004950880541026658    5    4   10    1
 -0.002666104837645993    5    4   10    2
 -9.730271586917997e-05    5    4   10    5
 0.003119378518740824    5    4   10    6
 0.004483805105086165    5    4   10    9
 0.006405085614419331    5    4   11    1
 -0.003449210620339256    5    4   11    2
 -0.000125883107154993    5    4   11    5
 0.004035622817142805    5    4   11    6
 0.005800817720900192    5    4   11    9
 0.008666654446208948    5    4   12    3
 0.0006149920916604943    5    4   12    4
 0.01067778765717226    5    4   12    7
 0.001678173576167259    5    4   12    8
 0.001755671146073507    5    4   12   10
 -0.001168395083237336    5    4   12   11
 -0.0006149920916604868    5    4   13    3
 0.008666654446208939    5    4   13    4
 -0.00167817357616727    5    4   13    7
 0.01067778765717227    5    4   13    8
 0.001168395083237339    5    4   13   10
 0.001755671146073514    5    4   13   11
 -0.001302188078933113    5    4   14    4
 -0.0004271091605204224    5    4   14    7
 0.005009878549380669    5    4   14    8
 -0.001721814699018176    5    4   14   10
 -0.002227557394687232    5    4   14   11
 0.00227196392670365    5    4   15    4
 7.102087353340661e-05    5    4   15    7
 -0.0008330562389243818    5    4   15    8
 -0.002991442449620273    5    4   15   10
 -0.003870108527492941    5    4   15   11
 0.2190490328476066    5    5    1    1
 -0.009477710787910699    5    5    2    1
 0.1451433508699189    5    5    2    2
 0.1472859427941114    5    5    3    3
 0.1472859427941112    5    5    4    4
 -0.014605117198384    5    5    5    1
 0.01151913251117263    5    5    5    2
 0.1628935085037334    5    5    5    5
 -0.004331459048171874    5    5    6    1
 -0.01722127527389216    5    5    6    2
 0.007351860601940825    5    5    6    5
 0.1510035922278531    5    5    6    6
 0.01838846120892102    5    5    7    3
 -0.001567678767617121    5    5    7    4
 0.1602011207200824    5    5    7    7
 0.001567678767617107    5    5    8    3
 0.01838846120892102    5    5    8    4
 0.1602011207200825    5    5    8    8
 -0.01087406291610985    5    5    9    1
 0.009313392425161177    5    5    9    2
 0.005939602824254445    5    5    9    5
 0.0002253581768392283    5    5    9    6
 0.1853957187252178    5    5    9    9
 0.006723787246351728    5    5   10    3
 0.005197224431321526    5    5   10    4
 0.006485058622578214    5    5   10    7