 &FCI NORB=  15,NELEC= 2,MS2=0,
  ORBSYM=1,1,1,1,1,1,1,1,1,1,1,1,1,1,1,
  ISYM=1,
 &END
 0.4772539832015227    1    1    1    1
 -0.04341428270932349    1    1    2    1
 0.1695989127357863    1    1    2    2
 0.1796656739075207    1    1    3    3
 0.1796656739075205    1    1    4    4
 -0.08417969426336899    1    1    5    1
 0.03459088722050153    1    1    5    2
 0.2190490328476065    1    1    5    5
 -0.0211020074877509    1    1    6    1
 -0.03100842876523699    1    1    6    2
 0.01637783854012537    1    1    6    5
 0.1831853338326593    1    1    6    6
 0.01893375358781025    1    1    7    3
 0.04066275729508318    1    1    7    4
 0.2232044702384412    1    1    7    7
 -0.04066275729508321    1    1    8    3
 0.01893375358781032    1    1    8    4
 0.2232044702384414    1    1    8    8
 -0.05837759210435765    1    1    9    1
 0.0381690901390755    1    1    9    2
 0.03215200012511488    1    1    9    5
 -0.004216446629147906    1    1    9    6
 0.3039426261508869    1    1    9    9
 0.01689622751293353    1    1   10    3
 0.02855339232931825    1    1   10    4
 0.04556097305336833    1    1   10    7
 -0.004504642067230745    1    1   10    8
 0.3055636527090923    1    1   10   10
 -0.02855339232931829    1    1   11    3
 0.01689622751293356    1    1   11    4
 0.00450464206723074    1    1   11    7
 0.04556097305336838    1    1   11    8
 0.3055636527090924    1    1   11   11
 0.2650450290926323    1    1   12   12
 0.2650450290926325    1    1   13   13
 -0.02252466296040215    1    1   14    1
 0.0006057772553034361    1    1   14    2
 0.03079427304226549    1    1   14    5
 -0.004511284111941355    1    1   14    6
 -0.03967428345367303    1    1   14    9
 0.3125509476023043    1    1   14   14
 0.09081867314764126    1    1   15    1
 -0.01624241285397217    1    1   15    2
 -0.06710937170591783    1    1   15    5
 -0.01612903149844854    1    1   15    6
 -0.07074362823535596    1    1   15    9
 -0.02323768990326344    1    1   15   14
 0.5322202272469224    1    1   15   15
 -0.04341428270932349    2    1    1    1
 0.009420978177272598    2    1    2    1
 0.007936055795404009    2    1    2    2
 0.002677081543642375    2    1    3    3
 0.00267708154364237    2    1    4    4
 0.0127273491585249    2    1    5    1
 -0.001075654080323814    2    1    5    2
 -0.009477710787910473    2    1    5    5
 0.00055414519393856    2    1    6    1
 -0.00327700158799696    2    1    6    2
 -0.006281905491673205    2    1    6    5
 0.007232635526214235    2    1    6    6
 0.0007557633444402486    2    1    7    3
 0.001623102429477023    2    1    7    4
 0.004648495205183329    2    1    7    7
 -0.001623102429477024    2    1    8    3
 0.0007557633444402488    2    1    8    4
 0.004648495205183326    2    1    8    8
 0.0176670537607552    2    1    9    1
 -0.006242633856338517    2    1    9    2
 -0.002849854040894998    2    1    9    5
 0.001279301414727357    2    1    9    6
 -0.009367194090598458    2    1    9    9
 -0.002948758746046327    2    1   10    3
 -0.004983187240815677    2    1   10    4
 -0.008125097806210223    2    1   10    7
 0.0008033335314271297    2    1   10    8
 -0.003467504164751316    2    1   10   10
 0.004983187240815686    2    1   11    3
 -0.002948758746046323    2    1   11    4
 -0.0008033335314271311    2    1   11    7
 -0.008125097806210227    2    1   11    8
 -0.003467504164751314    2    1   11   11
 0.006227864178714822    2    1   12   12
 0.006227864178714822    2    1   13   13
 -0.000503464825674237    2    1   14    1
 0.00166099442062826    2    1   14    2
 -0.003172231286344477    2    1   14    5
 0.0002195628130689142    2    1   14    6
 0.01337708461003709    2    1   14    9
 -0.0113493838350925    2    1   14   14
 -0.01681960063419618    2    1   15    1
 0.003085407055839    2    1   15    2
 0.01214787401210882    2    1   15    5
 0.003137365692357119    2    1   15    6
 0.01131191838441566    2    1   15    9
 0.009709453107063611    2    1   15   14
 -0.05695032576731367    2    1   15   15
 0.1695989127357863    2    2    1    1
 0.007936055795403997    2    2    2    1
 0.2288854897438151    2    2    2    2
 0.1697025047498177    2    2    3    3
 0.1697025047498175    2    2    4    4
 -0.006303136001042224    2    2    5    1
 0.008955300144430536    2    2    5    2
 0.145143350869919    2    2    5    5
 -0.01159114545414319    2    2    6    1
 -0.04010654850525925    2    2    6    2
 -0.03115867420844111    2    2    6    5
 0.2122206379483697    2    2    6    6
 0.01459287179090902    2    2    7    3
 0.03134013554787299    2    2    7    4
 0.1966110418474669    2    2    7    7
 -0.03134013554787297    2    2    8    3
 0.01459287179090906    2    2    8    4
 0.196611041847467    2    2    8    8
 0.0139538896565648    2    2    9    1
 -0.0240925376132781    2    2    9    2
 0.009854119327442542    2    2    9    5
 0.01716523201374281    2    2    9    6
 0.2000109416598859    2    2    9    9
 -0.009478947587313227    2    2   10    3
 -0.01601873016461334    2    2   10    4
 -0.02683828667384703    2    2   10    7
 0.002653518286841539    2    2   10    8
 0.2253963319990379    2    2   10   10
 0.01601873016461336    2    2   11    3
 -0.009478947587313161    2    2   11    4
 -0.002653518286841588    2    2   11    7
 -0.02683828667384704    2    2   11    8
 0.225396331999038    2    2   11   11
 0.2214872546432702    2    2   12   12
 0.2214872546432703    2    2   13   13
 -0.006039609226253763    2    2   14    1
 -0.004276277883735788    2    2   14    2
 -0.0009288366206107168    2    2   14    5
 0.02057561670487489    2    2   14    6
 0.03468830144637914    2    2   14    9
 0.2134603520556361    2    2   14   14
 0.005092133711261843    2    2   15    1
 -0.008049818653372067    2    2   15    2
 -0.001068636275455549    2    2   15    5
 0.004269799997493294    2    2   15    6
 0.006123285728361401    2    2   15    9
 0.02226158368749607    2    2   15   14
 0.1696702791809709    2    2   15   15
 0.009064716624679992    3    1    3    1
 0.008990434834071942    3    1    3    2
 0.009063797454396984    3    1    5    3
 0.004556194808846037    3    1    6    3
 0.003356753461707902    3    1    7    1
 0.00196108819553216    3    1    7    2
 0.0002039312108741717    3    1    7    5
 -0.003889528541566469    3    1    7    6
 -0.007209075088034075    3    1    8    1
 -0.004211698063954754    3    1    8    2
 -0.0004379694334887552    3    1    8    5
 0.008353280523299953    3    1    8    6
 0.006275517142537572    3    1    9    3
 0.004741365984914499    3    1    9    7
 -0.01018271487465991    3    1    9    8
 0.006888309033328146    3    1   10    1
 -0.002342536368973228    3    1   10    2
 -0.0007912731568012407    3    1   10    5
 0.001816901639355715    3    1   10    6
 0.004634302382576392    3    1   10    9
 -0.01164073993225113    3    1   11    1
 0.003958715632693096    3    1   11    2
 0.00133719393092389    3    1   11    5
 -0.003070431271867861    3    1   11    6
 -0.007831633067269451    3    1   11    9
 -0.008112468045654939    3    1   12    3
 0.003009066524979675    3    1   12    4
 -0.0009532793008817965    3    1   12    7
 0.01180360337881022    3    1   12    8
 -0.0008066314486611084    3    1   12   10
 0.004454601496684835    3    1   12   11
 -0.003009066524979678    3    1   13    3
 -0.008112468045654931    3    1   13    4
 -0.01180360337881023    3    1   13    7
 -0.0009532793008818    3    1   13    8
 -0.004454601496684837    3    1   13   10
 -0.0008066314486611109    3    1   13   11
 3.514934027075831e-05    3    1   14    3
 0.001721963159887343    3    1   14    7
 -0.003698145204902899    3    1   14    8
 -0.002260334393756487    3    1   14   10
 0.003819800289205212    3    1   14   11
 0.0002644270823715854    3    1   15    3
 -0.000629173403351806    3    1   15    7
 0.001351233672624068    3    1   15    8
 -0.003808005202261017    3    1   15   10
 0.006435251090754621    3    1   15   11
 0.008990434834071945    3    2    3    1
 0.02575077503229957    3    2    3    2
 0.009510736041044531    3    2    5    3
 0.007574384850904076    3    2    6    3
 0.003043507502728792    3    2    7    1
 0.00403948763810903    3    2    7    2
 0.002260006140989626    3    2    7    5
 -0.008786358293737657    3    2    7    6
 -0.006536337675214166    3    2    8    1
 -0.00867533765363181    3    2    8    2
 -0.004853664159632034    3    2    8    5
 0.01886987454172387    3    2    8    6
 0.005838514654792677    3    2    9    3
 0.005108860746159061    3    2    9    7
 -0.01097195881482204    3    2    9    8
 0.002731381661415369    3    2   10    1
 -0.007847749813775126    3    2   10    2
 -0.001691998131573779    3    2   10    5
 0.00656988044101317    3    2   10    6
 0.005516070798969793    3    2   10    9
 -0.004615835820143827    3    2   11    1
 0.01326212488341136    3    2   11    2
 0.002859353452379713    3    2   11    5
 -0.01110261883283519    3    2   11    6
 -0.009321757387482945    3    2   11    9
 -0.01295738763764515    3    2   12    3
 0.004806138054683175    3    2   12    4
 -0.001455012761328384    3    2   12    7
 0.01801611923173107    3    2   12    8
 0.0006595415217504513    3    2   12   10
 -0.003642301146071072    3    2   12   11
 -0.004806138054683184    3    2   13    3
 -0.01295738763764514    3    2   13    4
 -0.01801611923173107    3    2   13    7
 -0.0014550127613284    3    2   13    8
 0.003642301146071069    3    2   13   10
 0.000659541521750448    3    2   13   11
 0.002992591299068134    3    2   14    3
 0.003408602869332376    3    2   14    7
 -0.007320428595850149    3    2   14    8
 -0.001074062589824479    3    2   14   10
 0.001815087450143927    3    2   14   11
 0.003881005316593648    3    2   15    3
 0.0005694969971953862    3    2   15    7
 -0.001223070643115572    3    2   15    8
 -0.001862844580536705    3    2   15   10
 0.003148071492047154    3    2   15   11
 0.1796656739075206    3    3    1    1
 0.002677081543642363    3    3    2    1
 0.1697025047498177    3    3    2    2
 0.1756497140484255    3    3    3    3
 0.1542137105600253    3    3    4    4
 -0.003939682679843765    3    3    5    1
 0.0137561017513034    3    3    5    2
 0.1472859427941113    3    3    5    5
 -0.005294241420374751    3    3    6    1
 -0.01908007838958337    3    3    6    2
 -0.003044599963312455    3    3    6    5
 0.168448083194367    3    3    6    6
 0.01020437683824445    3    3    7    3
 0.02090493907094557    3    3    7    4
 0.1710655829529495    3    3    7    7
 -0.02191525820787294    3    3    8    3
 0.00973394308372027    3    3    8    4
 -0.005888967659390016    3    3    8    7
 0.180970851917075    3    3    8    8
 0.01068621549724463    3    3    9    1
 0.002181357241359954    3    3    9    2
 0.010892519908583    3    3    9    5
 0.00154609562794537    3    3    9    6
 0.1828126772444309    3    3    9    9
 5.405313791724932e-05    3    3   10    3
 4.593930247352089e-05    3    3   10    4
 -0.00154581495052858    3    3   10    7
 0.0002232324204325467    3    3   10    8
 0.1907162928890576    3    3   10   10
 -9.134586122265401e-05    3    3   11    3
 2.718419224680699e-05    3    3   11    4
 -9.137152238280263e-05    3    3   11    7
 -0.001636160786315337    3    3   11    8
 -0.005684048057915031    3    3   11   10
 0.1969584324095592    3    3   11   11
 -0.004915065888077689    3    3   12    1
 -0.006374455863671189    3    3   12    2
 -0.003780960894016145    3    3   12    5
 0.00340396148627414    3    3   12    6
 -0.007856098661545075    3    3   12    9
 0.2005080033008029    3    3   12   12
 -0.001823090106321652    3    3   13    1
 -0.002364405215082094    3    3   13    2
 -0.001402429297029386    3    3   13    5
 0.001262593147119211    3    3   13    6
 -0.002913974312916309    3    3   13    9
 0.2005080033008029    3    3   13   13
 -0.005164064028549882    3    3   14    1
 0.003270004254813584    3    3   14    2
 0.002241217707411731    3    3   14    5
 -0.001847419052847153    3    3   14    6
 0.01059754913236729    3    3   14    9
 -0.003819675487121451    3    3   14   12
 -0.001416789265597004    3    3   14   13
 0.1818466323928118    3    3   14   14
 0.00105960641077394    3    3   15    1
 0.001665543912876621    3    3   15    2
 -0.002070674520800002    3    3   15    5
 0.0001820714382073738    3    3   15    6
 -0.001134712173250778    3    3   15    9
 -0.001494807907479185    3    3   15   12
 -0.0005544522838619558    3    3   15   13
 0.008647702959013147    3    3   15   14
 0.1753868843152964    3    3   15   15
 0.009064716624679978    4    1    4    1
 0.00899043483407193    4    1    4    2
 0.009063797454396972    4    1    5    4
 0.004556194808846037    4    1    6    4
 0.007209075088034068    4    1    7    1
 0.004211698063954754    4    1    7    2
 0.0004379694334887638    4    1    7    5
 -0.008353280523299943    4    1    7    6
 0.003356753461707907    4    1    8    1
 0.001961088195532168    4    1    8    2
 0.0002039312108741758    4    1    8    5
 -0.003889528541566459    4    1    8    6
 0.006275517142537557    4    1    9    4
 0.01018271487465989    4    1    9    7
 0.004741365984914502    4    1    9    8
 0.01164073993225112    4    1   10    1
 -0.003958715632693088    4    1   10    2
 -0.00133719393092389    4    1   10    5
 0.003070431271867851    4    1   10    6
 0.007831633067269439    4    1   10    9
 0.006888309033328144    4    1   11    1
 -0.002342536368973223    4    1   11    2
 -0.0007912731568012425    4    1   11    5
 0.001816901639355711    4    1   11    6
 0.004634302382576389    4    1   11    9
 0.003009066524979675    4    1   12    3
 0.008112468045654918    4    1   12    4
 0.01180360337881021    4    1   12    7
 0.000953279300881795    4    1   12    8
 0.004454601496684832    4    1   12   10
 0.0008066314486611075    4    1   12   11
 -0.008112468045654932    4    1   13    3
 0.003009066524979672    4    1   13    4
 -0.0009532793008817904    4    1   13    7
 0.01180360337881022    4    1   13    8
 -0.0008066314486611067    4    1   13   10
 0.004454601496684832    4    1   13   11
 3.514934027075095e-05    4    1   14    4
 0.003698145204902884    4    1   14    7
 0.001721963159887344    4    1   14    8
 -0.00381980028920521    4    1   14   10
 -0.002260334393756484    4    1   14   11
 0.0002644270823715851    4    1   15    4
 -0.001351233672624061    4    1   15    7
 -0.0006291734033518073    4    1   15    8
 -0.006435251090754615    4    1   15   10
 -0.003808005202261016    4    1   15   11
 0.008990434834071928    4    2    4    1
 0.02575077503229954    4    2    4    2
 0.009510736041044516    4    2    5    4
 0.007574384850904101    4    2    6    4
 0.006536337675214167    4    2    7    1
 0.008675337653631827    4    2    7    2
 0.00485366415963204    4    2    7    5
 -0.01886987454172385    4    2    7    6
 0.003043507502728793    4    2    8    1
 0.004039487638109041    4    2    8    2
 0.00226000614098963    4    2    8    5
 -0.008786358293737664    4    2    8    6
 0.005838514654792656    4    2    9    4
 0.01097195881482202    4    2    9    7
 0.005108860746159063    4    2    9    8
 0.004615835820143824    4    2   10    1
 -0.01326212488341134    4    2   10    2
 -0.002859353452379703    4    2   10    5
 0.01110261883283516    4    2   10    6
 0.009321757387482938    4    2   10    9
 0.002731381661415368    4    2   11    1
 -0.007847749813775111    4    2   11    2
 -0.00169199813157378    4    2   11    5
 0.00656988044101317    4    2   11    6
 0.005516070798969795    4    2   11    9
 0.004806138054683176    4    2   12    3
 0.01295738763764512    4    2   12    4
 0.01801611923173105    4    2   12    7
 0.001455012761328395    4    2   12    8
 -0.003642301146071065    4    2   12   10
 -0.0006595415217504476    4    2   12   11
 -0.01295738763764514    4    2   13    3
 0.004806138054683168    4    2   13    4
 -0.001455012761328377    4    2   13    7
 0.01801611923173107    4    2   13    8
 0.0006595415217504532    4    2   13   10
 -0.003642301146071067    4    2   13   11
 0.002992591299068125    4    2   14    4
 0.007320428595850137    4    2   14    7
 0.00340860286933237    4    2   14    8
 -0.001815087450143927    4    2   14   10
 -0.001074062589824493    4    2   14   11
 0.003881005316593644    4    2   15    4
 0.001223070643115573    4    2   15    7
 0.0005694969971953914    4    2   15    8
 -0.00314807149204715    4    2   15   10
 -0.001862844580536702    4    2   15   11
 0.01071800174419999    4    3    4    3
 0.0005051595684637345    4    3    7    3
 0.0002352168772620964    4    3    7    4
 0.005888967659390094    4    3    7    7
 0.0002352168772621137    4    3    8    3
 -0.000505159568463722    4    3    8    4
 -0.004952634482062633    4    3    8    7
 -0.005888967659390117    4    3    8    8
 2.270327937456737e-05    4    3   10    3
 1.34344728352434e-05    4    3   10    4
 -6.593044902488513e-05    4    3   10    7
 4.517291789337318e-05    4    3   10    8
 0.00568404805791506    4    3   10   10
 1.34344728352485e-05    4    3   11    3
 -2.270327937456965e-05    4    3   11    4
 4.517291789337522e-05    4    3   11    7
 6.593044902487584e-05    4    3   11    8
 -0.003121069760250809    4    3   11   10
 -0.005684048057915006    4    3   11   11
 0.001823090106321651    4    3   12    1
 0.002364405215082092    4    3   12    2
 0.001402429297029385    4    3   12    5
 -0.00126259314711921    4    3   12    6
 0.002913974312916309    4    3   12    9
 -0.004915065888077679    4    3   13    1
 -0.006374455863671186    4    3   13    2
 -0.003780960894016145    4    3   13    5
 0.003403961486274088    4    3   13    6
 -0.007856098661545029    4    3   13    9
 0.001416789265597    4    3   14   12
 -0.003819675487121467    4    3   14   13
 0.0005544522838619563    4    3   15   12
 -0.001494807907479179    4    3   15   13
 0.1796656739075205    4    4    1    1
 0.002677081543642347    4    4    2    1
 0.1697025047498175    4    4    2    2
 0.1542137105600253    4    4    3    3
 0.1756497140484252    4    4    4    4
 -0.003939682679843773    4    4    5    1
 0.01375610175130339    4    4    5    2
 0.1472859427941111    4    4    5    5
 -0.005294241420374761    4    4    6    1
 -0.01908007838958334    4    4    6    2
 -0.003044599963312405    4    4    6    5
 0.1684480831943669    4    4    6    6
 0.009733943083720187    4    4    7    3
 0.02191525820787288    4    4    7    4
 0.1809708519170747    4    4    7    7
 -0.02090493907094549    4    4    8    3
 0.01020437683824446    4    4    8    4
 0.005888967659390131    4    4    8    7
 0.1710655829529496    4    4    8    8
 0.01068621549724461    4    4    9    1
 0.002181357241359901    4    4    9    2
 0.01089251990858299    4    4    9    5
 0.001546095627945396    4    4    9    6
 0.1828126772444308    4    4    9    9
 2.718419224675972e-05    4    4   10    3
 9.134586122266138e-05    4    4   10    4
 -0.001636160786315322    4    4   10    7
 9.137152238278701e-05    4    4   10    8
 0.1969584324095589    4    4   10   10
 -4.593930247352154e-05    4    4   11    3
 5.405313791730136e-05    4    4   11    4
 -0.0002232324204325693    4    4   11    7
 -0.001545814950528579    4    4   11    8
 0.005684048057915017    4    4   11   10
 0.1907162928890574    4    4   11   11
 0.004915065888077681    4    4   12    1
 0.00637445586367118    4    4   12    2
 0.003780960894016141    4    4   12    5
 -0.003403961486274125    4    4   12    6
 0.007856098661545064    4    4   12    9
 0.2005080033008027    4    4   12   12
 0.001823090106321648    4    4   13    1
 0.002364405215082091    4    4   13    2
 0.001402429297029384    4    4   13    5
 -0.0012625931471192    4    4   13    6
 0.0029139743129163    4    4   13    9
 0.2005080033008027    4    4   13   13
 -0.005164064028549857    4    4   14    1
 0.003270004254813664    4    4   14    2
 0.002241217707411773    4    4   14    5
 -0.00184741905284722    4    4   14    6
 0.01059754913236687    4    4   14    9
 0.003819675487121445    4    4   14   12
 0.001416789265597001    4    4   14   13
 0.1818466323928122    4    4   14   14
 0.001059606410773944    4    4   15    1
 0.001665543912876585    4    4   15    2
 -0.002070674520800043    4    4   15    5
 0.0001820714382073391    4    4   15    6
 -0.001134712173250745    4    4   15    9
 0.001494807907479184    4    4   15   12
 0.0005544522838619552    4    4   15   13
 0.008647702959013126    4    4   15   14
 0.1753868843152961    4    4   15   15
 -0.08417969426336896    5    1    1    1
 0.01272734915852491    5    1    2    1
 -0.006303136001042218    5    1    2    2
 -0.003939682679843763    5    1    3    3
 -0.003939682679843753    5    1    4    4
 0.02846475287488843    5    1    5    1
 -0.005825307806916579    5    1    5    2
 -0.01460511719838404    5    1    5    5
 0.006548271432300201    5    1    6    1
 0.002226863647360492    5    1    6    2
 -0.0006391862444088277    5    1    6    5
 -0.006778107521018963    5    1    6    6
 -0.002344487101769658    5    1    7    3
 -0.00503509827349231    5    1    7    4
 -0.01359547216267756    5    1    7    7
 0.005035098273492321    5    1    8    3
 -0.002344487101769659    5    1    8    4
 -0.01359547216267757    5    1    8    8
 0.01979501814126852    5    1    9    1
 -0.006904614157935609    5    1    9    2
 -0.00835784223150908    5    1    9    5
 -0.0002501959972426087    5    1    9    6
 -0.03061783239224801    5    1    9    9
 -0.003024927216005808    5    1   10    3
 -0.005111906400415778    5    1   10    4
 -0.01047829427052254    5    1   10    7
 0.0010359955461998    5    1   10    8
 -0.03114463191997318    5    1   10   10
 0.005111906400415787    5    1   11    3
 -0.003024927216005808    5    1   11    4
 -0.001035995546199799    5    1   11    7
 -0.01047829427052255    5    1   11    8
 -0.03114463191997318    5    1   11   11
 -0.01665972216060642    5    1   12   12
 -0.0166597221606064    5    1   13   13
 0.01076740224744812    5    1   14    1
 -0.0009729713017009688    5    1   14    2
 -0.008844030076564617    5    1   14    5
 -0.0008287114862355876    5    1   14    6
 0.009162402360904889    5    1   14    9
 -0.03449516967832045    5    1   14   14
 -0.03763097756445497    5    1   15    1
 0.008185950920380252    5    1   15    2
 0.02008042193043334    5    1   15    5
 0.00419865461957309    5    1   15    6
 0.02506618825822704    5    1   15    9
 0.005727024155860544    5    1   15   14
 -0.1072726431256687    5    1   15   15
 0.03459088722050149    5    2    1    1
 -0.001075654080323825    5    2    2    1
 0.008955300144430457    5    2    2    2
 0.0137561017513034    5    2    3    3
 0.01375610175130338    5    2    4    4
 -0.005825307806916551    5    2    5    1
 0.01083579277809544    5    2    5    2
 0.01151913251117252    5    2    5    5
 -0.003471065631204264    5    2    6    1
 -0.01299823849257574    5    2    6    2
 0.001134847919931477    5    2    6    5
 0.01808362223360236    5    2    6    6
 0.004033576556445945    5    2    7    3
 0.008662642818563661    5    2    7    4
 0.02475624326474287    5    2    7    7
 -0.008662642818563668    5    2    8    3
 0.004033576556445947    5    2    8    4
 0.02475624326474289    5    2    8    8
 0.0006876837752922821    5    2    9    1
 0.004674036218397234    5    2    9    2
 0.002920549620086127    5    2    9    5
 0.001271319527143825    5    2    9    6
 0.02745242606259416    5    2    9    9
 0.0006103485237281567    5    2   10    3
 0.001031444495067915    5    2   10    4
 -0.0002536884515327803    5    2   10    7
 2.508233679308003e-05    5    2   10    8
 0.03215639996818997    5    2   10   10
 -0.001031444495067914    5    2   11    3
 0.0006103485237281625    5    2   11    4
 -2.508233679308317e-05    5    2   11    7
 -0.000253688451532781    5    2   11    8
 0.03215639996818999    5    2   11   11
 0.03288094062921933    5    2   12   12
 0.03288094062921935    5    2   13   13
 -0.003430980860510973    5    2   14    1
 -0.0006925978403043358    5    2   14    2
 0.002830145232953578    5    2   14    5
 -0.0007767387760731798    5    2   14    6
 0.003885144595724115    5    2   14    9
 0.02936618535765044    5    2   14   14
 0.007334301822029862    5    2   15    1
 7.095095067823759e-05    5    2   15    2
 -0.004481099945363031    5    2   15    5
 0.0001139963819221216    5    2   15    6
 -0.005082301874769891    5    2   15    9
 0.002890363904404983    5    2   15   14
 0.03725566183598268    5    2   15   15
 0.009063797454396977    5    3    3    1
 0.009510736041044531    5    3    3    2
 0.01459108473571142    5    3    5    3
 0.007166494637944549    5    3    6    3
 0.002264678346677139    5    3    7    1
 0.002127652065844274    5    3    7    2
 -0.0007526762940705758    5    3    7    5
 -0.004311838722000461    5    3    7    6
 -0.004863698343557718    5    3    8    1
 -0.004569416157264663    5    3    8    2
 0.001616472577696296    5    3    8    5
 0.009260247876106624    5    3    8    6
 0.005972057963792075    5    3    9    3
 0.004503601406756317    5    3    9    7
 -0.009672083779236822    5    3    9    8
 0.004122691406478182    5    3   10    1
 -0.002220115676766793    5    3   10    2
 -8.10258028277216e-05    5    3   10    5
 0.002597565202027423    5    3   10    6
 0.003733748900196294    5    3   10    9
 -0.006967047827201192    5    3   11    1
 0.003751833590466728    5    3   11    2
 0.0001369276979235065    5    3   11    5
 -0.004389695762423871    5    3   11    6
 -0.006309763355450672    5    3   11    9
 -0.008146124703206569    5    3   12    3
 0.00302155041040287    5    3   12    4
 -0.0008701089595951301    5    3   12    7
 0.01077377956902022    5    3   12    8
 -0.0003757679858686579    5    3   12   10
 0.00207516906889162    5    3   12   11
 -0.003021550410402874    5    3   13    3
 -0.008146124703206557    5    3   13    4
 -0.01077377956902023    5    3   13    7
 -0.0008701089595951429    5    3   13    8
 -0.002075169068891623    5    3   13   10
 -0.0003757679858686605    5    3   13   11
 -0.001302188078933111    5    3   14    3
 0.002122404779661407    5    3   14    7
 -0.004558146911389999    5    3   14    8
 -0.001433787505953064    5    3   14   10
 0.002422996325245657    5    3   14   11
 0.002271963926703644    5    3   15    3
 -0.0003529192426108838    5    3   15    7
 0.0007579410728303751    5    3   15    8
 -0.002491030429400352    5    3   15   10
 0.004209659765796397    5    3   15   11
 0.00906379745439697    5    4    4    1
 0.009510736041044519    5    4    4    2
 0.01459108473571141    5    4    5    4
 0.007166494637944555    5    4    6    4
 0.004863698343557721    5    4    7    1
 0.004569416157264666    5    4    7    2
 -0.001616472577696284    5    4    7    5
 -0.0092602478761066    5    4    7    6
 0.002264678346677143    5    4    8    1
 0.002127652065844276    5    4    8    2
 -0.0007526762940705692    5    4    8    5
 -0.004311838722000454    5    4    8    6
 0.005972057963792064    5    4    9    4
 0.009672083779236812    5    4    9    7
 0.004503601406756304    5    4    9    8
 0.006967047827201193    5    4   10    1
 -0.003751833590466721    5    4   10    2
 -0.0001369276979235109    5    4   10    5
 0.004389695762423864    5    4   10    6
 0.006309763355450672    5    4   10    9
 0.004122691406478182    5    4   11    1
 -0.002220115676766788    5    4   11    2
 -8.102580282771899e-05    5    4   11    5
 0.002597565202027425    5    4   11    6
 0.003733748900196297    5    4   11    9
 0.003021550410402871    5    4   12    3
 0.008146124703206551    5    4   12    4
 0.01077377956902021    5    4   12    7
 0.0008701089595951369    5    4   12    8
 0.002075169068891624    5    4   12   10
 0.0003757679858686605    5    4   12   11
 -0.008146124703206564    5    4   13    3
 0.003021550410402867    5    4   13    4
 -0.0008701089595951301    5    4   13    7
 0.01077377956902023    5    4   13    8
 -0.0003757679858686588    5    4   13   10
 0.002075169068891624    5    4   13   11
 -0.001302188078933116    5    4   14    4
 0.004558146911389988    5    4   14    7
 0.002122404779661415    5    4   14    8
 -0.002422996325245654    5    4   14   10
 -0.001433787505953064    5    4   14   11
 0.002271963926703643    5    4   15    4
 -0.0007579410728303706    5    4   15    7
 -0.000352919242610886    5    4   15    8
 -0.004209659765796397    5    4   15   10
 -0.00249103042940035    5    4   15   11
 0.2190490328476064    5    5    1    1
 -0.009477710787910511    5    5    2    1
 0.145143350869919    5    5    2    2
 0.1472859427941112    5    5    3    3
 0.1472859427941111    5    5    4    4
 -0.01460511719838404    5    5    5    1
 0.01151913251117253    5    5    5    2
 0.1628935085037331    5    5    5    5
 -0.00433145904817215    5    5    6    1
 -0.01722127527389214    5    5    6    2
 0.007351860601940955    5    5    6    5
 0.1510035922278525    5    5    6    6
 0.007790160495059851    5    5    7    3
 0.01673040710238802    5    5    7    4
 0.1602011207200821    5    5    7    7
 -0.01673040710238801    5    5    8    3
 0.007790160495059914    5    5    8    4
 0.1602011207200822    5    5    8    8
 -0.01087406291610997    5    5    9    1
 0.009313392425161562    5    5    9    2
 0.00593960282425476    5    5    9    5
 0.0002253581768398259    5    5    9    6
 0.185395718725217    5    5    9    9
 0.00432782660033731    5    5   10    3
 0.007313711345215928    5    5   10    4
 0.008763865381998148    5    5   10    7
 -0.0008664888834804653    5    5   10    8
 0.1856550005635648    5    5   10   10