 &FCI NORB=  15,NELEC= 2,MS2=0,
  ORBSYM=1,1,1,1,1,1,1,1,1,1,1,1,1,1,1,
  ISYM=1,
 &END
 0.4772539832015225    1    1    1    1
 -0.0434142827093224    1    1    2    1
 0.1695989127357859    1    1    2    2
 0.1796656739075202    1    1    3    3
 0.1796656739075204    1    1    4    4
 -0.08417969426336891    1    1    5    1
 0.03459088722050168    1    1    5    2
 0.2190490328476059    1    1    5    5
 -0.02110200748775277    1    1    6    1
 -0.03100842876523639    1    1    6    2
 0.01637783854012614    1    1    6    5
 0.1831853338326603    1    1    6    6
 -0.03333106812055447    1    1    7    3
 0.03001644138977353    1    1    7    4
 0.2232044702384416    1    1    7    7
 0.03001644138977353    1    1    8    3
 0.03333106812055449    1    1    8    4
 0.2232044702384415    1    1    8    8
 -0.05837759210435781    1    1    9    1
 0.03816909013907557    1    1    9    2
 0.03215200012511444    1    1    9    5
 -0.004216446629146955    1    1    9    6
 0.3039426261508874    1    1    9    9
 -0.01085980633683326    1    1   10    3
 0.03135033211956863    1    1   10    4
 0.0400857166760869    1    1   10    7
 0.02211853033743709    1    1   10    8
 0.3055636527090922    1    1   10   10
 0.03135033211956859    1    1   11    3
 0.01085980633683331    1    1   11    4
 -0.02211853033743708    1    1   11    7
 0.04008571667608678    1    1   11    8
 0.3055636527090921    1    1   11   11
 0.2650450290926322    1    1   12   12
 0.2650450290926323    1    1   13   13
 -0.02252466296040271    1    1   14    1
 0.0006057772553033897    1    1   14    2
 0.03079427304226656    1    1   14    5
 -0.004511284111940718    1    1   14    6
 -0.03967428345367232    1    1   14    9
 0.3125509476023027    1    1   14   14
 0.09081867314764125    1    1   15    1
 -0.01624241285397181    1    1   15    2
 -0.06710937170591784    1    1   15    5
 -0.01612903149845013    1    1   15    6
 -0.07074362823535624    1    1   15    9
 -0.02323768990326361    1    1   15   14
 0.5322202272469219    1    1   15   15
 -0.0434142827093224    2    1    1    1
 0.009420978177272233    2    1    2    1
 0.007936055795403813    2    1    2    2
 0.002677081543642413    2    1    3    3
 0.002677081543642415    2    1    4    4
 0.01272734915852462    2    1    5    1
 -0.001075654080323622    2    1    5    2
 -0.009477710787910092    2    1    5    5
 0.0005541451939388418    2    1    6    1
 -0.003277001587996993    2    1    6    2
 -0.006281905491673411    2    1    6    5
 0.007232635526213858    2    1    6    6
 -0.001330449316334941    2    1    7    3
 0.001198142039174699    2    1    7    4
 0.004648495205183427    2    1    7    7
 0.001198142039174701    2    1    8    3
 0.001330449316334945    2    1    8    4
 0.004648495205183427    2    1    8    8
 0.01766705376075499    2    1    9    1
 -0.006242633856338244    2    1    9    2
 -0.002849854040894882    2    1    9    5
 0.001279301414727085    2    1    9    6
 -0.009367194090598226    2    1    9    9
 0.001895272118678131    2    1   10    3
 -0.005471313993509393    2    1   10    4
 -0.007148670162152006    2    1   10    7
 -0.003944499212314594    2    1   10    8
 -0.003467504164751045    2    1   10   10
 -0.005471313993509391    2    1   11    3
 -0.001895272118678143    2    1   11    4
 0.003944499212314597    2    1   11    7
 -0.007148670162151999    2    1   11    8
 -0.00346750416475104    2    1   11   11
 0.00622786417871497    2    1   12   12
 0.006227864178714973    2    1   13   13
 -0.0005034648256742088    2    1   14    1
 0.00166099442062831    2    1   14    2
 -0.003172231286344403    2    1   14    5
 0.0002195628130689153    2    1   14    6
 0.0133770846100368    2    1   14    9
 -0.01134938383509219    2    1   14   14
 -0.01681960063419586    2    1   15    1
 0.003085407055838889    2    1   15    2
 0.01214787401210851    2    1   15    5
 0.003137365692357281    2    1   15    6
 0.01131191838441537    2    1   15    9
 0.009709453107063556    2    1   15   14
 -0.05695032576731232    2    1   15   15
 0.1695989127357859    2    2    1    1
 0.007936055795403841    2    2    2    1
 0.2288854897438153    2    2    2    2
 0.1697025047498175    2    2    3    3
 0.1697025047498176    2    2    4    4
 -0.006303136001042032    2    2    5    1
 0.008955300144431296    2    2    5    2
 0.14514335086992    2    2    5    5
 -0.01159114545414297    2    2    6    1
 -0.04010654850525931    2    2    6    2
 -0.03115867420844261    2    2    6    5
 0.2122206379483688    2    2    6    6
 -0.02568935955997935    2    2    7    3
 0.0231346668154753    2    2    7    4
 0.1966110418474671    2    2    7    7
 0.0231346668154753    2    2    8    3
 0.02568935955997937    2    2    8    4
 0.1966110418474671    2    2    8    8
 0.01395388965656505    2    2    9    1
 -0.02409253761327798    2    2    9    2
 0.009854119327442097    2    2    9    5
 0.0171652320137431    2    2    9    6
 0.2000109416598859    2    2    9    9
 0.006092456733103132    2    2   10    3
 -0.01758784052705128    2    2   10    4
 -0.02361301534142478    2    2   10    7
 -0.01302920939166452    2    2   10    8
 0.2253963319990378    2    2   10   10
 -0.01758784052705132    2    2   11    3
 -0.006092456733103189    2    2   11    4
 0.01302920939166453    2    2   11    7
 -0.02361301534142481    2    2   11    8
 0.2253963319990377    2    2   11   11
 0.2214872546432702    2    2   12   12
 0.2214872546432703    2    2   13   13
 -0.00603960922625366    2    2   14    1
 -0.004276277883735638    2    2   14    2
 -0.0009288366206111674    2    2   14    5
 0.02057561670487504    2    2   14    6
 0.03468830144637872    2    2   14    9
 0.2134603520556369    2    2   14   14
 0.005092133711261791    2    2   15    1
 -0.008049818653372079    2    2   15    2
 -0.001068636275455649    2    2   15    5
 0.004269799997493329    2    2   15    6
 0.006123285728361559    2    2   15    9
 0.02226158368749596    2    2   15   14
 0.1696702791809707    2    2   15   15
 0.009064716624679909    3    1    3    1
 0.00899043483407186    3    1    3    2
 0.009063797454396852    3    1    5    3
 0.00455619480884622    3    1    6    3
 -0.005909244449453736    3    1    7    1
 -0.00345230880567606    3    1    7    2
 -0.0003590014547317504    3    1    7    5
 0.006847144184830622    3    1    7    6
 0.005321596326686274    3    1    8    1
 0.003108992023603069    3    1    8    2
 0.0003233003540667688    3    1    8    5
 -0.006166226097763546    3    1    8    6
 0.006275517142537507    3    1    9    3
 -0.008346722792960004    3    1    9    7
 0.007516678271617401    3    1    9    8
 -0.004427361198406061    3    1   10    1
 0.001505631436636613    3    1   10    2
 0.0005085793995031692    3    1   10    5
 -0.001167787301714183    3    1   10    6
 -0.002978630960229446    3    1   10    9
 0.0127810054505811    3    1   11    1
 -0.004346490547269296    3    1   11    2
 -0.001468178399233264    3    1   11    5
 0.003371194533145798    3    1   11    6
 0.008598778557229115    3    1   11    9
 -0.008646778306171254    3    1   12    3
 -0.000315981118819207    3    1   12    4
 0.00850442205011877    3    1   12    7
 -0.008240667433114978    3    1   12    8
 0.001324586653783182    3    1   12   10
 -0.004328925846541548    3    1   12   11
 0.0003159811188191894    3    1   13    3
 -0.008646778306171259    3    1   13    4
 -0.008240667433114985    3    1   13    7
 -0.008504422050118763    3    1   13    8
 -0.004328925846541553    3    1   13   10
 -0.001324586653783185    3    1   13   11
 3.514934027076393e-05    3    1   14    3
 -0.003031351977678771    3    1   14    7
 0.002729897483052963    3    1   14    8
 0.001452797303651873    3    1   14   10
 -0.004193967789040806    3    1   14   11
 0.0002644270823715865    3    1   15    3
 0.001107599793643751    3    1   15    7
 -0.0009974539120374258    3    1   15    8
 0.002447540375184513    3    1   15   10
 -0.007065614363475187    3    1   15   11
 0.008990434834071862    3    2    3    1
 0.02575077503229957    3    2    3    2
 0.009510736041044394    3    2    5    3
 0.007574384850904332    3    2    6    3
 -0.005357804802328382    3    2    7    1
 -0.007111132877774157    3    2    7    2
 -0.003978525350974243    3    2    7    5
 0.01546754611873216    3    2    7    6
 0.004824994904011537    3    2    8    1
 0.006403962287334221    3    2    8    2
 0.003582878669933839    3    2    8    5
 -0.01392936733492295    3    2    8    6
 0.005838514654792609    3    2    9    3
 -0.008993662284602945    3    2    9    7
 0.008099282503302824    3    2    9    8
 -0.001755556135370689    3    2   10    1
 0.00504402791050724    3    2   10    2
 0.001087507375070044    3    2   10    5
 -0.004222695817213479    3    2   10    6
 -0.003545374881536078    3    2   10    9
 0.005067978764202003    3    2   11    1
 -0.01456121272424889    3    2   11    2
 -0.003139440643180729    3    2   11    5
 0.01219017284503052    3    2   11    6
 0.01023486760049746    3    2   11    9
 -0.01381079810722352    3    2   12    3
 -0.0005046910286334173    3    2   12    4
 0.01298050067718791    3    2   12    7
 -0.01257792576210814    3    2   12    8
 -0.001083047157132993    3    2   12   10
 0.003539542557027582    3    2   12   11
 0.0005046910286333903    3    2   13    3
 -0.01381079810722353    3    2   13    4
 -0.01257792576210816    3    2   13    7
 -0.0129805006771879    3    2   13    8
 0.003539542557027577    3    2   13   10
 0.001083047157132991    3    2   13   11
 0.002992591299068151    3    2   14    3
 -0.006000520388454864    3    2   14    7
 0.00540379527882947    3    2   14    8
 0.0006903382255123432    3    2   14   10
 -0.001992883848328028    3    2   14   11
 0.003881005316593657    3    2   15    3
 -0.00100254516992296    3    2   15    7
 0.0009028465041909543    3    2   15    8
 0.001197316463971773    3    2   15   10
 -0.003456439980005037    3    2   15   11
 0.1796656739075202    3    3    1    1
 0.002677081543642397    3    3    2    1
 0.1697025047498175    3    3    2    2
 0.1756497140484251    3    3    3    3
 0.1542137105600251    3    3    4    4
 -0.003939682679843751    3    3    5    1
 0.01375610175130372    3    3    5    2
 0.147285942794111    3    3    5    5
 -0.005294241420374676    3    3    6    1
 -0.01908007838958302    3    3    6    2
 -0.003044599963312733    3    3    6    5
 0.1684480831943673    3    3    6    6
 -0.01796383257793682    3    3    7    3
 0.0154316116299299    3    3    7    4
 0.1768212622870807    3    3    7    7
 0.01617740918956105    3    3    8    3
 0.01713567880243034    3    3    8    4
 -0.00765268889814712    3    3    8    7
 0.1752151725829434    3    3    8    8
 0.01068621549724461    3    3    9    1
 0.002181357241359904    3    3    9    2
 0.01089251990858283    3    3    9    5
 0.001546095627945324    3    3    9    6
 0.1828126772444306    3    3    9    9
 -3.474187413909447e-05    3    3   10    3
 5.043927436981614e-05    3    3   10    4
 -0.001368694588035223    3    3   10    7
 -0.0006987553283142558    3    3   10    8
 0.1887422925536088    3    3   10   10
 0.0001002936202483457    3    3   11    3
 1.747224716269107e-05    3    3   11    4
 0.00084600155793419    3    3   11    7
 -0.001430889558420433    3    3   11    8
 -0.00401120175171385    3    3   11   10
 0.1989324327450068    3    3   11   11
 -0.005238786132069326    3    3   12    1
 -0.006794295689726675    3    3   12    2
 -0.004029985751669233    3    3   12    5
 0.003628156088740671    3    3   12    6
 -0.008373523703945169    3    3   12    9
 0.2005080033008025    3    3   12   12
 0.0001914421122702216    3    3   13    1
 0.000248285439687525    3    3   13    2
 0.0001472686544685709    3    3   13    5
 -0.0001325845048383749    3    3   13    6
 0.0003059955158724557    3    3   13    9
 0.2005080033008025    3    3   13   13
 -0.005164064028549837    3    3   14    1
 0.003270004254813786    3    3   14    2
 0.002241217707411939    3    3   14    5
 -0.001847419052847045    3    3   14    6
 0.01059754913236696    3    3   14    9
 -0.004071250198186762    3    3   14   12
 0.0001487765902009772    3    3   14   13
 0.1818466323928117    3    3   14   14
 0.001059606410773954    3    3   15    1
 0.001665543912876611    3    3   15    2
 -0.002070674520800078    3    3   15    5
 0.0001820714382073201    3    3   15    6
 -0.001134712173250892    3    3   15    9
 -0.001593260215454059    3    3   15   12
 5.82228579967151e-05    3    3   15   13
 0.008647702959013216    3    3   15   14
 0.175386884315296    3    3   15   15
 0.009064716624679919    4    1    4    1
 0.008990434834071871    4    1    4    2
 0.009063797454396854    4    1    5    4
 0.004556194808846214    4    1    6    4
 0.005321596326686276    4    1    7    1
 0.003108992023603071    4    1    7    2
 0.0003233003540667728    4    1    7    5
 -0.006166226097763522    4    1    7    6
 0.005909244449453738    4    1    8    1
 0.003452308805676053    4    1    8    2
 0.0003590014547317378    4    1    8    5
 -0.006847144184830662    4    1    8    6
 0.006275517142537518    4    1    9    4
 0.007516678271617388    4    1    9    7
 0.008346722792960013    4    1    9    8
 0.01278100545058111    4    1   10    1
 -0.004346490547269296    4    1   10    2
 -0.001468178399233263    4    1   10    5
 0.003371194533145799    4    1   10    6
 0.008598778557229117    4    1   10    9
 0.004427361198406084    4    1   11    1
 -0.001505631436636622    4    1   11    2
 -0.0005085793995031709    4    1   11    5
 0.001167787301714186    4    1   11    6
 0.00297863096022946    4    1   11    9
 -0.0003159811188192023    4    1   12    3
 0.008646778306171263    4    1   12    4
 0.008240667433115001    4    1   12    7
 0.008504422050118749    4    1   12    8
 0.004328925846541556    4    1   12   10
 0.001324586653783179    4    1   12   11
 -0.008646778306171261    4    1   13    3
 -0.0003159811188192198    4    1   13    4
 0.008504422050118768    4    1   13    7
 -0.008240667433114995    4    1   13    8
 0.001324586653783178    4    1   13   10
 -0.004328925846541553    4    1   13   11
 3.514934027076594e-05    4    1   14    4
 0.002729897483052956    4    1   14    7
 0.003031351977678768    4    1   14    8
 -0.00419396778904081    4    1   14   10
 -0.00145279730365188    4    1   14   11
 0.0002644270823715848    4    1   15    4
 -0.0009974539120374247    4    1   15    7
 -0.001107599793643751    4    1   15    8
 -0.007065614363475188    4    1   15   10
 -0.002447540375184525    4    1   15   11
 0.008990434834071871    4    2    4    1
 0.02575077503229959    4    2    4    2
 0.009510736041044394    4    2    5    4
 0.007574384850904322    4    2    6    4
 0.004824994904011541    4    2    7    1
 0.00640396228733423    4    2    7    2
 0.00358287866993384    4    2    7    5
 -0.01392936733492293    4    2    7    6
 0.005357804802328376    4    2    8    1
 0.00711113287777414    4    2    8    2
 0.003978525350974239    4    2    8    5
 -0.01546754611873219    4    2    8    6
 0.005838514654792622    4    2    9    4
 0.008099282503302802    4    2    9    7
 0.008993662284602922    4    2    9    8
 0.005067978764202008    4    2   10    1
 -0.01456121272424889    4    2   10    2
 -0.00313944064318073    4    2   10    5
 0.01219017284503054    4    2   10    6
 0.01023486760049749    4    2   10    9
 0.001755556135370695    4    2   11    1
 -0.005044027910507265    4    2   11    2
 -0.001087507375070046    4    2   11    5
 0.004222695817213498    4    2   11    6
 0.003545374881536092    4    2   11    9
 -0.0005046910286334096    4    2   12    3
 0.01381079810722353    4    2   12    4
 0.01257792576210817    4    2   12    7
 0.0129805006771879    4    2   12    8
 -0.00353954255702758    4    2   12   10
 -0.001083047157132985    4    2   12   11
 -0.01381079810722353    4    2   13    3
 -0.0005046910286334357    4    2   13    4
 0.01298050067718792    4    2   13    7
 -0.01257792576210816    4    2   13    8
 -0.001083047157132986    4    2   13   10
 0.003539542557027585    4    2   13   11
 0.00299259129906815    4    2   14    4
 0.005403795278829506    4    2   14    7
 0.006000520388454895    4    2   14    8
 -0.001992883848328048    4    2   14   10
 -0.0006903382255123499    4    2   14   11
 0.003881005316593657    4    2   15    4
 0.0009028465041909508    4    2   15    7
 0.001002545169922958    4    2   15    8
 -0.003456439980005033    4    2   15   10
 -0.001197316463971776    4    2   15   11
 0.01071800174420001    4    3    4    3
 0.0003728987798155421    4    3    7    3
 -0.0004140768877532013    4    3    7    4
 -0.007652688898147158    4    3    7    7
 0.0004140768877532475    4    3    8    3
 0.0003728987798156006    4    3    8    4
 -0.0008030448520687367    4    3    8    7
 0.007652688898147294    4    3    8    8
 2.492717293928175e-05    4    3   10    3
 -8.634813488193595e-06    4    3   10    4
 7.362311480994951e-05    4    3   10    7
 -3.109748519257944e-05    4    3   10    8
 -0.004011201751713792    4    3   10   10
 8.634813488188831e-06    4    3   11    3
 2.492717293927889e-05    4    3   11    4
 -3.109748519257327e-05    4    3   11    7
 -7.362311480996447e-05    4    3   11    8
 0.005095070095699037    4    3   11   10
 0.00401120175171403    4    3   11   11
 -0.0001914421122702265    4    3   12    1
 -0.0002482854396875323    4    3   12    2
 -0.0001472686544685751    4    3   12    5
 0.0001325845048383774    4    3   12    6
 -0.0003059955158724625    4    3   12    9
 -0.00523878613206932    4    3   13    1
 -0.006794295689726679    4    3   13    2
 -0.004029985751669237    4    3   13    5
 0.003628156088740626    4    3   13    6
 -0.008373523703945136    4    3   13    9
 -0.0001487765902009826    4    3   14   12
 -0.004071250198186781    4    3   14   13
 -5.822285799671676e-05    4    3   15   12
 -0.001593260215454055    4    3   15   13
 0.1796656739075204    4    4    1    1
 0.002677081543642396    4    4    2    1
 0.1697025047498176    4    4    2    2
 0.1542137105600251    4    4    3    3
 0.1756497140484253    4    4    4    4
 -0.003939682679843734    4    4    5    1
 0.01375610175130371    4    4    5    2
 0.1472859427941111    4    4    5    5
 -0.005294241420374674    4    4    6    1
 -0.01908007838958317    4    4    6    2
 -0.003044599963312807    4    4    6    5
 0.1684480831943668    4    4    6    6
 -0.01713567880243034    4    4    7    3
 0.0161774091895611    4    4    7    4
 0.1752151725829434    4    4    7    7
 0.01543161162992992    4    4    8    3
 0.0179638325779368    4    4    8    4
 0.007652688898147133    4    4    8    7
 0.1768212622870809    4    4    8    8
 0.01068621549724462    4    4    9    1
 0.002181357241360002    4    4    9    2
 0.01089251990858298    4    4    9    5
 0.001546095627945701    4    4    9    6
 0.1828126772444306    4    4    9    9
 -1.747224716271015e-05    4    4   10    3
 0.0001002936202483826    4    4   10    4
 -0.001430889558420381    4    4   10    7
 -0.0008460015579341851    4    4   10    8
 0.198932432745007    4    4   10   10
 5.043927436978383e-05    4    4   11    3
 3.474187413907625e-05    4    4   11    4
 0.000698755328314273    4    4   11    7
 -0.001368694588035278    4    4   11    8
 0.004011201751713961    4    4   11   10
 0.1887422925536088    4    4   11   11
 0.005238786132069329    4    4   12    1
 0.00679429568972668    4    4   12    2
 0.004029985751669237    4    4   12    5
 -0.003628156088740672    4    4   12    6
 0.008373523703945175    4    4   12    9
 0.2005080033008026    4    4   12   12
 -0.0001914421122702324    4    4   13    1
 -0.0002482854396875396    4    4   13    2
 -0.0001472686544685791    4    4   13    5
 0.0001325845048383866    4    4   13    6
 -0.0003059955158724749    4    4   13    9
 0.2005080033008026    4    4   13   13
 -0.005164064028549824    4    4   14    1
 0.003270004254813746    4    4   14    2
 0.002241217707411752    4    4   14    5
 -0.00184741905284714    4    4   14    6
 0.01059754913236711    4    4   14    9
 0.004071250198186768    4    4   14   12
 -0.0001487765902009858    4    4   14   13
 0.1818466323928118    4    4   14   14
 0.001059606410773923    4    4   15    1
 0.001665543912876636    4    4   15    2
 -0.002070674520800016    4    4   15    5
 0.0001820714382073582    4    4   15    6
 -0.001134712173250736    4    4   15    9
 0.00159326021545406    4    4   15   12
 -5.822285799671913e-05    4    4   15   13
 0.008647702959012946    4    4   15   14
 0.1753868843152961    4    4   15   15
 -0.08417969426336891    5    1    1    1
 0.01272734915852462    5    1    2    1
 -0.00630313600104204    5    1    2    2
 -0.003939682679843765    5    1    3    3
 -0.003939682679843771    5    1    4    4
 0.02846475287488836    5    1    5    1
 -0.005825307806916504    5    1    5    2
 -0.01460511719838413    5    1    5    5
 0.006548271432300783    5    1    6    1
 0.002226863647360374    5    1    6    2
 -0.0006391862444089669    5    1    6    5
 -0.006778107521018898    5    1    6    6
 0.004127246028339303    5    1    7    3
 -0.003716809736272006    5    1    7    4
 -0.01359547216267756    5    1    7    7
 -0.003716809736272011    5    1    8    3
 -0.004127246028339314    5    1    8    4
 -0.01359547216267755    5    1    8    8
 0.01979501814126847    5    1    9    1
 -0.006904614157935621    5    1    9    2
 -0.00835784223150899    5    1    9    5
 -0.0002501959972429158    5    1    9    6
 -0.03061783239224805    5    1    9    9
 0.00194422830325252    5    1   10    3
 -0.005612641803427009    5    1   10    4
 -0.009219072974688769    5    1   10    7
 -0.005086907811114275    5    1   10    8
 -0.03114463191997316    5    1   10   10
 -0.005612641803427004    5    1   11    3
 -0.001944228303252534    5    1   11    4
 0.005086907811114274    5    1   11    7
 -0.009219072974688757    5    1   11    8
 -0.03114463191997315    5    1   11   11
 -0.01665972216060635    5    1   12   12
 -0.01665972216060636    5    1   13   13
 0.01076740224744826    5    1   14    1
 -0.0009729713017008936    5    1   14    2
 -0.008844030076564665    5    1   14    5
 -0.0008287114862356936    5    1   14    6
 0.009162402360904803    5    1   14    9
 -0.03449516967832038    5    1   14   14
 -0.03763097756445485    5    1   15    1
 0.008185950920380091    5    1   15    2
 0.02008042193043321    5    1   15    5
 0.004198654619573556    5    1   15    6
 0.02506618825822698    5    1   15    9
 0.005727024155860889    5    1   15   14
 -0.1072726431256686    5    1   15   15
 0.03459088722050168    5    2    1    1
 -0.001075654080323607    5    2    2    1
 0.00895530014443136    5    2    2    2
 0.0137561017513037    5    2    3    3
 0.01375610175130371    5    2    4    4
 -0.005825307806916497    5    2    5    1
 0.01083579277809593    5    2    5    2
 0.01151913251117273    5    2    5    5
 -0.003471065631204456    5    2    6    1
 -0.0129982384925762    5    2    6    2
 0.001134847919931139    5    2    6    5
 0.01808362223360345    5    2    6    6
 -0.007100726982046098    5    2    7    3
 0.006394591211732957    5    2    7    4
 0.02475624326474378    5    2    7    7
 0.006394591211732961    5    2    8    3
 0.007100726982046109    5    2    8    4
 0.02475624326474375    5    2    8    8
 0.000687683775292542    5    2    9    1
 0.004674036218397037    5    2    9    2
 0.002920549620086026    5    2    9    5
 0.001271319527144263    5    2    9    6
 0.02745242606259477    5    2    9    9
 -0.0003922927032430719    5    2   10    3
 0.00113247936043213    5    2   10    4
 -0.0002232016287325911    5    2   10    7
 -0.0001231583817343248    5    2   10    8
 0.03215639996819109    5    2   10   10
 0.001132479360432124    5    2   11    3
 0.0003922927032430701    5    2   11    4
 0.0001231583817343247    5    2   11    7
 -0.0002232016287326014    5    2   11    8
 0.03215639996819106    5    2   11   11
 0.03288094062922042    5    2   12   12
 0.03288094062922042    5    2   13   13
 -0.003430980860510982    5    2   14    1
 -0.0006925978403045381    5    2   14    2
 0.002830145232953552    5    2   14    5
 -0.0007767387760730315    5    2   14    6
 0.003885144595724678    5    2   14    9
 0.02936618535765148    5    2   14   14
 0.007334301822029716    5    2   15    1
 7.095095067821889e-05    5    2   15    2
 -0.004481099945362979    5    2   15    5
 0.000113996381922165    5    2   15    6
 -0.005082301874769751    5    2   15    9
 0.002890363904405261    5    2   15   14
 0.03725566183598278    5    2   15   15
 0.00906379745439685    5    3    3    1
 0.00951073604104438    5    3    3    2
 0.01459108473571112    5    3    5    3
 0.007166494637944616    5    3    6    3
 -0.003986750323656777    5    3    7    1
 -0.003745528619805901    5    3    7    2
 0.001325014858466331    5    3    7    5
 0.007590580996066618    5    3    7    6
 0.003590285705602923    5    3    8    1
 0.003373052429147675    5    3    8    2
 -0.001193248014011516    5    3    8    5
 -0.006835731419067773    5    3    8    6
 0.005972057963792021    5    3    9    3
 -0.007928160920667109    5    3    9    7
 0.007139740519060754    5    3    9    8
 -0.002649800390448603    5    3   10    1
 0.001426947303864101    5    3   10    2
 5.207816515981453e-05    5    3   10    5
 -0.001669547537740144    5    3   10    6
 -0.002399813208922397    5    3   10    9
 0.00764950310479937    5    3   11    1
 -0.004119343430787859    5    3   11    2
 -0.0001503404133829196    5    3   11    5
 0.004819687218549801    5    3   11    6
 0.006927834511143149    5    3   11    9
 -0.008682651687087883    5    3   12    3
 -0.0003172920476572684    5    3   12    4
 0.007762440467491445    5    3   12    7
 -0.007521697533938509    5    3   12    8
 0.0006170565997975443    5    3   12   10
 -0.002016623265841763    5    3   12   11
 0.0003172920476572521    5    3   13    3
 -0.008682651687087879    5    3   13    4
 -0.007521697533938522    5    3   13    7
 -0.007762440467491441    5    3   13    8
 -0.00201662326584177    5    3   13   10
 -0.0006170565997975471    5    3   13   11
 -0.001302188078933053    5    3   14    3
 -0.003736291272736863    5    3   14    7
 0.003364733695229769    5    3   14    8
 0.0009215462227235133    5    3   14   10
 -0.002660340272176572    5    3   14   11
 0.002271963926703621    5    3   15    3
 0.0006212806806617937    5    3   15    7
 -0.0005594970755282581    5    3   15    8
 0.001601073850463887    5    3   15   10
 -0.004622015844772042    5    3   15   11
 0.009063797454396857    5    4    4    1
 0.009510736041044391    5    4    4    2
 0.01459108473571112    5    4    5    4
 0.007166494637944621    5    4    6    4
 0.003590285705602933    5    4    7    1
 0.003373052429147682    5    4    7    2
 -0.001193248014011505    5    4    7    5
 -0.00683573141906776    5    4    7    6
 0.003986750323656771    5    4    8    1
 0.003745528619805903    5    4    8    2
 -0.001325014858466341    5    4    8    5
 -0.007590580996066628    5    4    8    6
 0.005972057963792025    5    4    9    4
 0.007139740519060776    5    4    9    7
 0.00792816092066711    5    4    9    8
 0.007649503104799376    5    4   10    1
 -0.004119343430787858    5    4   10    2
 -0.0001503404133829178    5    4   10    5
 0.004819687218549803    5    4   10    6
 0.006927834511143163    5    4   10    9
 0.002649800390448605    5    4   11    1
 -0.001426947303864109    5    4   11    2
 -5.207816515981887e-05    5    4   11    5
 0.001669547537740155    5    4   11    6
 0.002399813208922401    5    4   11    9
 -0.0003172920476572609    5    4   12    3
 0.00868265168708789    5    4   12    4
 0.007521697533938529    5    4   12    7
 0.007762440467491434    5    4   12    8
 0.002016623265841766    5    4   12   10
 0.0006170565997975496    5    4   12   11
 -0.008682651687087881    5    4   13    3
 -0.0003172920476572754    5    4   13    4
 0.007762440467491453    5    4   13    7
 -0.00752169753393852    5    4   13    8
 0.0006170565997975492    5    4   13   10
 -0.002016623265841765    5    4   13   11
 -0.001302188078933055    5    4   14    4
 0.003364733695229763    5    4   14    7
 0.003736291272736871    5    4   14    8
 -0.002660340272176579    5    4   14   10
 -0.0009215462227235115    5    4   14   11
 0.002271963926703621    5    4   15    4
 -0.0005594970755282574    5    4   15    7
 -0.0006212806806617918    5    4   15    8
 -0.004622015844772042    5    4   15   10
 -0.001601073850463889    5    4   15   11
 0.219049032847606    5    5    1    1
 -0.009477710787910118    5    5    2    1
 0.14514335086992    5    5    2    2
 0.1472859427941111    5    5    3    3
 0.1472859427941111    5    5    4    4
 -0.01460511719838417    5    5    5    1
 0.01151913251117282    5    5    5    2
 0.1628935085037327    5    5    5    5
 -0.004331459048172653    5    5    6    1
 -0.01722127527389246    5    5    6    2
 0.007351860601940486    5    5    6    5
 0.151003592227854    5    5    6    6
 -0.01371383486780284    5    5    7    3
 0.01235005488121719    5    5    7    4
 0.1602011207200829    5    5    7    7
 0.01235005488121716    5    5    8    3
 0.01371383486780281    5    5    8    4
 0.1602011207200829    5    5    8    8
 -0.01087406291610969    5    5    9    1
 0.009313392425161196    5    5    9    2
 0.00593960282425449    5    5    9    5
 0.0002253581768404617    5    5    9    6
 0.1853957187252177    5    5    9    9
 -0.002781648075174189    5    5   10    3
 0.008030123953563907    5    5   10    4
 0.007710674315024363    5    5   10    7
 0.004254602334718959    5    5   10    8
 0.1856550005635655    5    5   10   10