 &FCI NORB=   6,NELEC= 2,MS2=0,
  ORBSYM=1,1,1,1,1,1,
  ISYM=1,
 &END
 0.7145839130273641    1    1    1    1
 -2.03814107087065e-05    1    1    2    1
 0.4843099289570961    1    1    2    2
 0.4842889982379888    1    1    3    3
 0.1517803564773531    1    1    4    1
 -9.259128945227069e-06    1    1    4    2
 0.5015486441455198    1    1    4    4
 1.186679239882898e-05    1    1    5    1
 -0.1640383601852447    1    1    5    2
 9.434471272929791e-13    1    1    5    3
 1.402602350434289e-05    1    1    5    4
 0.6321267794588769    1    1    5    5
 -9.435040731072467e-13    1    1    6    2
 -0.1640326651212944    1    1    6    3
 0.6321777799541732    1    1    6    6
 -2.038141070869913e-05    2    1    1    1
 0.08561326257606305    2    1    2    1
 0.03351070676200071    2    1    2    2
 -8.076141536046221e-13    2    1    3    2
 -0.03350976566222742    2    1    3    3
 -7.939319919134363e-06    2    1    4    1
 -0.01959471409797246    2    1    4    2
 -1.853073695427549e-05    2    1    4    4
 -0.07970662399049115    2    1    5    1
 -0.02858792887373877    2    1    5    2
 5.244475548801148e-13    2    1    5    3
 -0.07142393355855582    2    1    5    4
 0.06403063888662486    2    1    5    5
 -4.583544583017439e-13    2    1    6    1
 5.243984724070552e-13    2    1    6    2
 0.02859670583768981    2    1    6    3
 -4.105816881393268e-13    2    1    6    4
 -8.063849374341602e-13    2    1    6    5
 -0.0640446883346236    2    1    6    6
 0.4843099289570962    2    2    1    1
 0.03351070676200058    2    2    2    1
 0.4376570786774467    2    2    2    2
 -8.073514673747988e-13    2    2    3    1
 0.3730822471376416    2    2    3    3
 0.05149995216034209    2    2    4    1
 -0.01152067813658991    2    2    4    2
 2.774835446881708e-13    2    2    4    3
 0.3927295542552158    2    2    4    4
 -0.03165553193600407    2    2    5    1
 -0.08157900710529904    2    2    5    2
 3.71511303793978e-13    2    2    5    3
 -0.02810095113066412    2    2    5    4
 0.4864375856136647    2    2    5    5
 5.804345343128028e-13    2    2    6    1
 -4.692567974184393e-13    2    2    6    2
 -0.06447644422661991    2    2    6    3
 5.154281806246231e-13    2    2    6    4
 3.999108021209541e-13    2    2    6    5
 0.4168113813848934    2    2    6    6
 -8.072878310408254e-13    3    1    2    2
 0.08559533012261704    3    1    3    1
 -0.0334996387575425    3    1    3    2
 8.075614365551271e-13    3    1    3    3
 -0.01960732954153925    3    1    4    3
 4.584935643928138e-13    3    1    5    1
 5.246631077273089e-13    3    1    5    2
 0.02857892244807896    3    1    5    3
 4.109423259089857e-13    3    1    5    4
 -8.063734766137876e-13    3    1    5    5
 -0.07970174350305013    3    1    6    1
 0.02859452539557742    3    1    6    2
 -5.246715522718487e-13    3    1    6    3
 -0.07141276083177504    3    1    6    4
 -0.06401080135635416    3    1    6    5
 8.066961355823934e-13    3    1    6    6
 -8.074501080281328e-13    3    2    2    1
 -0.03349963875754256    3    2    3    1
 0.03227085039520783    3    2    3    2
 2.777666974946872e-13    3    2    4    2
 0.01151763060442206    3    2    4    3
 5.808736133079727e-13    3    2    5    1
 4.994723868301744e-14    3    2    5    2
 -0.008541156220019748    3    2    5    3
 5.158490261092279e-13    3    2    5    4
 -4.007189232737022e-13    3    2    5    5
 0.03165134550521216    3    2    6    1
 -0.008549596909256951    3    2    6    2
 -4.84682663993359e-14    3    2    6    3
 0.02809272619522434    3    2    6    4
 0.03480430952144044    3    2    6    5
 4.003240652583276e-13    3    2    6    6
 0.4842889982379887    3    3    1    1
 -0.03350976566222759    3    3    2    1
 0.3730822471376411    3    3    2    2
 8.074685419332002e-13    3    3    3    1
 0.4376268480434164    3    3    3    3
 0.05148854415927417    3    3    4    1
 0.01151319160996742    3    3    4    2
 -2.777174995583107e-13    3    3    4    3
 0.3927288548728218    3    3    4    4
 0.03164554135147428    3    3    5    1
 -0.06447206757615101    3    3    5    2
 4.692226900315239e-13    3    3    5    3
 0.02809621129017439    3    3    5    4
 0.4167739152549168    3    3    5    5
 -5.812811306688893e-13    3    3    6    1
 -3.709189192941526e-13    3    3    6    2
 -0.08155885755722174    3    3    6    3
 -5.158195753399873e-13    3    3    6    4
 -4.006948116462545e-13    3    3    6    5
 0.4864191557461236    3    3    6    6
 0.1517803564773531    4    1    1    1
 -7.939319919115497e-06    4    1    2    1
 0.05149995216034202    4    1    2    2
 0.05148854415927426    4    1    3    3
 0.0768822589184075    4    1    4    1
 -7.763164143262391e-06    4    1    4    2
 0.06865869537234999    4    1    4    4
 7.622867188239717e-06    4    1    5    1
 -0.0647209164693224    4    1    5    2
 3.723938002926521e-13    4    1    5    3
 6.683066678813895e-06    4    1    5    4
 0.1303251862882841    4    1    5    5
 -3.721063924160969e-13    4    1    6    2
 -0.06471789187343638    4    1    6    3
 0.1303462261615892    4    1    6    6
 -9.259128945261329e-06    4    2    1    1
 -0.01959471409797233    4    2    2    1
 -0.01152067813658944    4    2    2    2
 2.776955384514701e-13    4    2    3    2
 0.01151319160996748    4    2    3    3
 -7.763164143181943e-06    4    2    4    1
 0.03886582779841805    4    2    4    2
 1.83730892300716e-06    4    2    4    4
 -0.01476652956467193    4    2    5    1
 -0.005719600757883494    4    2    5    2
 1.050747376187092e-13    4    2    5    3
 0.0134383122589888    4    2    5    4
 0.002817781124686194    4    2    5    5
 -8.477728868321957e-14    4    2    6    1
 1.050925611258868e-13    4    2    6    2
 0.00572331568654455    4    2    6    3
 7.742618444533491e-14    4    2    6    4
 -3.536053356346801e-14    4    2    6    5
 -0.002835493219216236    4    2    6    6
 2.776140529979687e-13    4    3    2    2
 -0.01960732954153934    4    3    3    1
 0.0115176306044219    4    3    3    2
 -2.774964257981417e-13    4    3    3    3
 0.03887540313193835    4    3    4    3
 8.494656086125069e-14    4    3    5    1
 1.049224885536369e-13    4    3    5    2
 0.005717247031380225    4    3    5    3
 -7.728665154523947e-14    4    3    5    4
 -3.5567439394318e-14    4    3    5    5
 -0.01475598659169035    4    3    6    1
 0.005716120430213755    4    3    6    2
 -1.047320709824117e-13    4    3    6    3
 0.01344518222265201    4    3    6    4
 -0.002820640496429109    4    3    6    5
 3.596909759517825e-14    4    3    6    6
 0.5015486441455198    4    4    1    1
 -1.85307369542087e-05    4    4    2    1
 0.3927295542552158    4    4    2    2
 0.3927288548728219    4    4    3    3
 0.06865869537234998    4    4    4    1
 1.837308922669756e-06    4    4    4    2
 0.4069284116650531    4    4    4    4
 1.07981872442376e-05    4    4    5    1
 -0.07827892439815277    4    4    5    2
 4.502581343464581e-13    4    4    5    3
 1.529871670946301e-05    4    4    5    4
 0.4610889060060747    4    4    5    5
 -4.50355078575513e-13    4    4    6    2
 -0.0782784905403819    4    4    6    3
 0.4611245185042302    4    4    6    6
 1.186679239887495e-05    5    1    1    1
 -0.07970662399049117    5    1    2    1
 -0.03165553193600427    5    1    2    2
 4.585473131368682e-13    5    1    3    1
 5.809941097398603e-13    5    1    3    2
 0.03164554135147436    5    1    3    3
 7.622867188248079e-06    5    1    4    1
 -0.01476652956467205    5    1    4    2
 8.497856402848819e-14    5    1    4    3
 1.079818724419594e-05    5    1    4    4
 0.1104695277577286    5    1    5    1
 0.04001963723791471    5    1    5    2
 -5.040407715282776e-13    5    1    5    3
 0.07569274368805008    5    1    5    4
 -0.0833084737807999    5    1    5    5
 -5.03778874502713e-13    5    1    6    2
 -0.04001497750246916    5    1    6    3
 5.701962157664607e-13    5    1    6    5
 0.08330473241987839    5    1    6    6
 -0.1640383601852446    5    2    1    1
 -0.02858792887373898    5    2    2    1
 -0.08157900710529804    5    2    2    2
 5.244312701432934e-13    5    2    3    1
 4.962883721047456e-14    5    2    3    2
 -0.06447206757615159    5    2    3    3
 -0.06472091646932239    5    2    4    1
 -0.005719600757883275    5    2    4    2
 1.047927994817228e-13    5    2    4    3
 -0.07827892439815308    5    2    4    4
 0.04001963723791462    5    2    5    1
 0.09252280474225004    5    2    5    2
 -4.118244041694052e-13    5    2    5    3
 0.02667089444786082    5    2    5    4
 -0.1743271052119613    5    2    5    5
 -5.039812740033119e-13    5    2    6    1
 4.113678389055701e-13    5    2    6    2
 0.05205760036471481    5    2    6    3
 -3.35734603361373e-13    5    2    6    4
 -1.743208616259205e-13    5    2    6    5
 -0.1136995664819412    5    2    6    6
 9.436029976138758e-13    5    3    1    1
 5.245989623816175e-13    5    3    2    1
 3.711624082177734e-13    5    3    2    2
 0.0285789224480789    5    3    3    1
 -0.008541156220019615    5    3    3    2
 4.693431386063707e-13    5    3    3    3
 3.722940891206267e-13    5    3    4    1
 1.050786689465768e-13    5    3    4    2
 0.005717247031380396    5    3    4    3
 4.500825705323662e-13    5    3    4    4
 -5.041269597279312e-13    5    3    5    1
 -4.119893361164375e-13    5    3    5    2
 0.02092824256304789    5    3    5    3
 -3.358045666058185e-13    5    3    5    4
 1.002771732585663e-12    5    3    5    5
 -0.0400076011510198    5    3    6    1
 0.01951429520993772    5    3    6    2
 -4.115962594645505e-13    5    3    6    3
 -0.0266647203312011    5    3    6    4
 -0.03030181714795063    5    3    6    5
 6.535457668864295e-13    5    3    6    6
 1.402602350447863e-05    5    4    1    1
 -0.07142393355855574    5    4    2    1
 -0.02810095113066405    5    4    2    2
 4.109448367848135e-13    5    4    3    1
 5.15519452868983e-13    5    4    3    2
 0.02809621129017424    5    4    3    3
 6.683066678829508e-06    5    4    4    1
 0.01343831225898862    5    4    4    2
 -7.731353987891055e-14    5    4    4    3
 1.529871670940923e-05    5    4    4    4
 0.07569274368805001    5    4    5    1
 0.02667089444786035    5    4    5    2
 -3.362376652838538e-13    5    4    5    3
 0.07391164033926093    5    4    5    4
 -0.06437486974659297    5    4    5    5
 -3.35967139456409e-13    5    4    6    2
 -0.02667348911384227    5    4    6    3
 4.40269999739567e-13    5    4    6    5
 0.06437786769744185    5    4    6    6
 0.6321267794588769    5    5    1    1
 0.06403063888662473    5    5    2    1
 0.4864375856136667    5    5    2    2
 -8.065934419942127e-13    5    5    3    1
 -4.009699782917188e-13    5    5    3    2
 0.4167739152549153    5    5    3    3
 0.1303251862882841    5    5    4    1
 0.002817781124687196    5    5    4    2
 -3.536949098521119e-14    5    5    4    3
 0.4610889060060741    5    5    4    4
 -0.08330847378079995    5    5    5    1
 -0.1743271052119606    5    5    5    2
 1.002679047862953e-12    5    5    5    3
 -0.06437486974659225    5    5    5    4
 0.6646931254103138    5    5    5    5
 5.695371585321409e-13    5    5    6    1
 -6.542872942399127e-13    5    5    6    2
 -0.113674054850837    5    5    6    3
 4.406566913804147e-13    5    5    6    4
 0.5182084630766725    5    5    6    6
 -4.583349585450329e-13    6    1    2    1
 5.805073457288155e-13    6    1    2    2
 -0.07970174350305012    6    1    3    1
 0.03165134550521242    6    1    3    2
 -5.811166748863471e-13    6    1    3    3
 -8.4806425957142e-14    6    1    4    2
 -0.01475598659169035    6    1    4    3
 -5.037486207397847e-13    6    1    5    2
 -0.04000760115101968    6    1    5    3
 5.696975633630246e-13    6    1    5    5
 0.1104836698954848    6    1    6    1
 -0.04002527538542687    6    1    6    2
 5.041972859554406e-13    6    1    6    3
 0.0756997159491033    6    1    6    4
 0.08329367559419087    6    1    6    5
 -5.709562479955775e-13    6    1    6    6
 -9.433233259175947e-13    6    2    1    1
 5.245110314022702e-13    6    2    2    1
 -4.698684609141069e-13    6    2    2    2
 0.02859452539557746    6    2    3    1
 -0.008549596909257627    6    2    3    2
 -3.711580787585496e-13    6    2    3    3
 -3.720875435288707e-13    6    2    4    1
 1.048562039501642e-13    6    2    4    2
 0.005716120430214171    6    2    4    3
 -4.501322528427361e-13    6    2    4    4
 -5.038403116226759e-13    6    2    5    1
 4.11031006471173e-13    6    2    5    2
 0.01951429520993667    6    2    5    3
 -3.358574918524426e-13    6    2    5    4
 -6.543249817660998e-13    6    2    5    5
 -0.04002527538542699    6    2    6    1
 0.02094085600393757    6    2    6    2
 4.112514992160922e-13    6    2    6    3
 -0.02667893000063678    6    2    6    4
 -0.0303173626267724    6    2    6    5
 -1.001862043854373e-12    6    2    6    6
 -0.1640326651212942    6    3    1    1
 0.02859670583768973    6    3    2    1
 -0.06447644422662011    6    3    2    2
 -5.246308961552e-13    6    3    3    1
 -4.884516751274523e-14    6    3    3    2
 -0.08155885755722092    6    3    3    3
 -0.06471789187343653    6    3    4    1
 0.005723315686544404    6    3    4    2
 -1.049156154394744e-13    6    3    4    3
 -0.0782784905403817    6    3    4    4
 -0.04001497750246923    6    3    5    1
 0.05205760036471541    6    3    5    2
 -4.115126628558145e-13    6    3    5    3
 -0.0266734891138429    6    3    5    4
 -0.1136740548508363    6    3    5    5
 5.040386626907405e-13    6    3    6    1
 4.115799974989854e-13    6    3    6    2
 0.09250694902793333    6    3    6    3
 3.358125487494998e-13    6    3    6    4
 1.739381781236577e-13    6    3    6    5
 -0.1743270189364891    6    3    6    6
 -4.106137054746021e-13    6    4    2    1
 5.152469911606916e-13    6    4    2    2
 -0.0714127608317751    6    4    3    1
 0.02809272619522456    6    4    3    2
 -5.161023382123606e-13    6    4    3    3
 7.73203509209883e-14    6    4    4    2
 0.01344518222265195    6    4    4    3
 -3.361728686074718e-13    6    4    5    2
 -0.02666472033120092    6    4    5    3
 4.399147693613572e-13    6    4    5    5
 0.07569971594910326    6    4    6    1
 -0.02667893000063656    6    4    6    2
 3.353621531301919e-13    6    4    6    3
 0.07390984546721725    6    4    6    4
 0.06436064530996297    6    4    6    5
 -4.41587748421657e-13    6    4    6    6
 -8.063360118859491e-13    6    5    2    1
 3.99425392554242e-13    6    5    2    2
 -0.06401080135635411    6    5    3    1
 0.03480430952143972    6    5    3    2
 -4.006813167231124e-13    6    5    3    3
 -3.579299649412656e-14    6    5    4    2
 -0.002820640496428621    6    5    4    3
 5.702200391772478e-13    6    5    5    1
 -1.747600738727333e-13    6    5    5    2
 -0.03030181714795176    6    5    5    3
 4.404073497391615e-13    6    5    5    4
 0.08329367559419074    6    5    6    1
 -0.03031736262677225    6    5    6    2
 1.740759993182851e-13    6    5    6    3
 0.06436064530996304    6    5    6    4
 0.07322031961661563    6    5    6    5
 0.6321777799541737    6    6    1    1
 -0.06404468833462335    6    6    2    1
 0.4168113813848929    6    6    2    2
 8.064934377736309e-13    6    6    3    1
 4.008824470117151e-13    6    6    3    2
 0.4864191557461244    6    6    3    3
 0.1303462261615891    6    6    4    1
 -0.00283549321921614    6    6    4    2
 3.542772975724402e-14    6    6    4    3
 0.46112451850423    6    6    4    4
 0.08330473241987844    6    6    5    1
 -0.1136995664819404    6    6    5    2
 6.542318366479386e-13    6    6    5    3
 0.06437786769744143    6    6    5    4
 0.5182084630766728    6    6    5    5
 -5.710206619961894e-13    6    6    6    1
 -1.00138556483858e-12    6    6    6    2
 -0.174327018936489    6    6    6    3
 -4.411938044135479e-13    6    6    6    4
 0.6647472427090846    6    6    6    6
 -1.984341852477224    1    1  0  0
 2.03800161597104e-05    2    1  0  0
 -1.041931373287623    2    2  0  0
 1.380017720781395e-15    3    2  0  0
 -1.041841658770273    3    3  0  0
 -0.1517791081684477    4    1  0  0
 1.057847329349064e-05    4    2  0  0
 -0.555635521733755    4    4  0  0
 -1.186785549496123e-05    5    1  0  0
 0.2483708919400273    5    2  0  0
 -1.428525307962373e-12    5    3  0  0
 -2.04302249707304e-05    5    4  0  0
 -0.2138979888789806    5    5  0  0
 1.258691979464487e-15    6    1  0  0
 1.428794756645056e-12    6    2  0  0
 0.2483643827502553    6    3  0  0
 -0.2137959269193225    6    6  0  0
 1.986525862467585  0  0  0  0
