 &FCI NORB=   6,NELEC= 2,MS2=0,
  ORBSYM=1,1,1,1,1,1,
  ISYM=1,
 &END
 0.7145839130235243    1    1    1    1
 -2.038141071047592e-05    1    1    2    1
 0.4843099289584207    1    1    2    2
 0.484288998239311    1    1    3    3
 0.1517803564777279    1    1    4    1
 -9.259128940591888e-06    1    1    4    2
 0.5015486441465711    1    1    4    4
 1.186679240388353e-05    1    1    5    1
 -0.1640383601853154    1    1    5    2
 7.019879141843619e-13    1    1    5    3
 1.402602350129845e-05    1    1    5    4
 0.6321267794552506    1    1    5    5
 7.022726446329368e-13    1    1    6    2
 0.1640326651213657    1    1    6    3
 0.632177779950553    1    1    6    6
 -2.038141071048676e-05    2    1    1    1
 0.08561326257727056    2    1    2    1
 0.03351070676261028    2    1    2    2
 -6.541416669775943e-14    2    1    3    2
 -0.03350976566283469    2    1    3    3
 -7.939319916658045e-06    2    1    4    1
 -0.01959471409715666    2    1    4    2
 -1.853073695223893e-05    2    1    4    4
 -0.07970662399009501    2    1    5    1
 -0.02858792887412749    2    1    5    2
 -6.680620088893252e-14    2    1    5    3
 -0.07142393355972035    2    1    5    4
 0.0640306388867614    2    1    5    5
 3.412441061868239e-13    2    1    6    1
 6.657616506101543e-14    2    1    6    2
 -0.02859670583807827    2    1    6    3
 3.05833830765194e-13    2    1    6    4
 -4.233802401353824e-13    2    1    6    5
 -0.06404468833476348    2    1    6    6
 0.4843099289584204    2    2    1    1
 0.0335107067626103    2    2    2    1
 0.4376570786794146    2    2    2    2
 -6.527351213134858e-14    2    2    3    1
 0.373082247139194    2    2    3    3
 0.05149995216170195    2    2    4    1
 -0.01152067813613766    2    2    4    2
 2.247777526470585e-14    2    2    4    3
 0.3927295542568107    2    2    4    4
 -0.03165553193610603    2    2    5    1
 -0.08157900710670762    2    2    5    2
 2.757539940146124e-13    2    2    5    3
 -0.02810095113125872    2    2    5    4
 0.486437585614782    2    2    5    5
 7.361428960495542e-14    2    2    6    1
 3.485132473618428e-13    2    2    6    2
 0.06447644422750845    2    2    6    3
 6.542312928693636e-14    2    2    6    4
 -2.986326808130146e-13    2    2    6    5
 0.4168113813854871    2    2    6    6
 -6.536653062094489e-14    3    1    2    2
 0.08559533012382459    3    1    3    1
 -0.03349963875814922    3    1    3    2
 6.512073908207393e-14    3    1    3    3
 -0.01960732954072647    3    1    4    3
 3.411856220263211e-13    3    1    5    1
 -6.67295094094729e-14    3    1    5    2
 0.02857892244846632    3    1    5    3
 3.057395656725294e-13    3    1    5    4
 4.232336630362902e-13    3    1    5    5
 0.07970174350265537    3    1    6    1
 -0.02859452539596637    3    1    6    2
 -6.636747039406045e-14    3    1    6    3
 0.07141276083293616    3    1    6    4
 0.06401080135649469    3    1    6    5
 -4.235716020594811e-13    3    1    6    6
 -6.530666724957049e-14    3    2    2    1
 -0.03349963875814906    3    2    3    1
 0.03227085039541244    3    2    3    2
 2.258144793835028e-14    3    2    4    2
 0.01151763060397241    3    2    4    3
 -7.374830448842485e-14    3    2    5    1
 3.682488752914291e-14    3    2    5    2
 -0.008541156220277492    3    2    5    3
 -6.535899725470581e-14    3    2    5    4
 -2.982595933810795e-13    3    2    5    5
 -0.03165134550531459    3    2    6    1
 0.008549596909515983    3    2    6    2
 3.628113653591962e-14    3    2    6    3
 -0.02809272619581374    3    2    6    4
 -0.03480430952170293    3    2    6    5
 2.984222927146383e-13    3    2    6    6
 0.4842889982393113    3    3    1    1
 -0.03350976566283466    3    3    2    1
 0.373082247139193    3    3    2    2
 6.521523220930306e-14    3    3    3    1
 0.4376268480453793    3    3    3    3
 0.05148854416063074    3    3    4    1
 0.01151319160951844    3    3    4    2
 -2.234208743646825e-14    3    3    4    3
 0.392728854874414    3    3    4    4
 0.03164554135157759    3    3    5    1
 -0.06447206757703988    3    3    5    2
 3.492857431895251e-13    3    3    5    3
 0.02809621129076326    3    3    5    4
 0.4167739152555076    3    3    5    5
 -7.376334682133447e-14    3    3    6    1
 2.759406153167593e-13    3    3    6    2
 0.08155885755862637    3    3    6    3
 -6.569172603211058e-14    3    3    6    4
 2.979788319593886e-13    3    3    6    5
 0.4864191557472425    3    3    6    6
 0.1517803564777279    4    1    1    1
 -7.939319916629205e-06    4    1    2    1
 0.05149995216170227    4    1    2    2
 0.05148854416063076    4    1    3    3
 0.07688225891945907    4    1    4    1
 -7.763164141909307e-06    4    1    4    2
 0.06865869537392104    4    1    4    4
 7.622867187101739e-06    4    1    5    1
 -0.06472091647034051    4    1    5    2
 2.769157011234133e-13    4    1    5    3
 6.683066674305349e-06    4    1    5    4
 0.1303251862885887    4    1    5    5
 2.77045327516695e-13    4    1    6    2
 0.06471789187445212    4    1    6    3
 0.1303462261618902    4    1    6    6
 -9.259128940972442e-06    4    2    1    1
 -0.0195947140971565    4    2    2    1
 -0.01152067813613838    4    2    2    2
 2.24620058594101e-14    4    2    3    2
 0.01151319160951823    4    2    3    3
 -7.763164141973925e-06    4    2    4    1
 0.03886582779800804    4    2    4    2
 1.83730892499949e-06    4    2    4    4
 -0.01476652956583635    4    2    5    1
 -0.005719600758313129    4    2    5    2
 -1.325416536291328e-14    4    2    5    3
 0.01343831225823132    4    2    5    4
 0.002817781125415978    4    2    5    5
 6.321336555459871e-14    4    2    6    1
 1.325878529728994e-14    4    2    6    2
 -0.005723315686970448    4    2    6    3
 -5.757748945449467e-14    4    2    6    4
 -1.883525297953855e-14    4    2    6    5
 -0.002835493219938163    4    2    6    6
 2.247141410206997e-14    4    3    2    2
 -0.01960732954072657    4    3    3    1
 0.01151763060397237    4    3    3    2
 -2.234264560431855e-14    4    3    3    3
 0.03887540313152841    4    3    4    3
 6.322131696300613e-14    4    3    5    1
 -1.330972893857895e-14    4    3    5    2
 0.005717247031808167    4    3    5    3
 -5.742856605170931e-14    4    3    5    4
 1.881681879110073e-14    4    3    5    5
 0.0147559865928517    4    3    6    1
 -0.005716120430641014    4    3    6    2
 -1.34433020298359e-14    4    3    6    3
 -0.01344518222189706    4    3    6    4
 0.00282064049715057    4    3    6    5
 -1.844581192305434e-14    4    3    6    6
 0.5015486441465712    4    4    1    1
 -1.853073695224153e-05    4    4    2    1
 0.3927295542568111    4    4    2    2
 0.392728854874414    4    4    3    3
 0.06865869537392101    4    4    4    1
 1.837308925112247e-06    4    4    4    2
 0.4069284116667896    4    4    4    4
 1.079818724229926e-05    4    4    5    1
 -0.07827892439938448    4    4    5    2
 3.352810147796442e-13    4    4    5    3
 1.529871670489895e-05    4    4    5    4
 0.4610889060067825    4    4    5    5
 3.348955370412618e-13    4    4    6    2
 0.07827849054161047    4    4    6    3
 0.4611245185049348    4    4    6    6
 1.186679240384233e-05    5    1    1    1
 -0.07970662399009501    5    1    2    1
 -0.0316555319361064    5    1    2    2
 3.411541067800613e-13    5    1    3    1
 -7.386500661899991e-14    5    1    3    2
 0.03164554135157745    5    1    3    3
 7.62286718711271e-06    5    1    4    1
 -0.01476652956583629    5    1    4    2
 6.316590127357199e-14    5    1    4    3
 1.079818724244525e-05    5    1    4    4
 0.11046952775581    5    1    5    1
 0.04001963723788253    5    1    5    2
 2.645660425209776e-13    5    1    5    3
 0.07569274368776385    5    1    5    4
 -0.08330847377951925    5    1    5    5
 -2.646140234849432e-13    5    1    6    2
 0.04001497750244026    5    1    6    3
 9.072660695541984e-13    5    1    6    5
 0.08330473241860716    5    1    6    6
 -0.1640383601853155    5    2    1    1
 -0.0285879288741276    5    2    2    1
 -0.0815790071067079    5    2    2    2
 -6.668463722497618e-14    5    2    3    1
 3.654271256248625e-14    5    2    3    2
 -0.06447206757704033    5    2    3    3
 -0.06472091647034063    5    2    4    1
 -0.005719600758312827    5    2    4    2
 -1.306186510331155e-14    5    2    4    3
 -0.07827892439938465    5    2    4    4
 0.0400196372378827    5    2    5    1
 0.09252280474336599    5    2    5    2
 -3.06556583318363e-13    5    2    5    3
 0.02667089444830108    5    2    5    4
 -0.1743271052119205    5    2    5    5
 -2.647508470666312e-13    5    2    6    1
 -3.063831544014419e-13    5    2    6    2
 -0.05205760036530807    5    2    6    3
 -1.765423294823437e-13    5    2    6    4
 1.29996684251386e-13    5    2    6    5
 -0.1136995664819248    5    2    6    6
 7.021555943306651e-13    5    3    1    1
 -6.670585528024605e-14    5    3    2    1
 2.754248444668766e-13    5    3    2    2
 0.02857892244846633    5    3    3    1
 -0.008541156220277756    5    3    3    2
 3.492808569723271e-13    5    3    3    3
 2.770355997939275e-13    5    3    4    1
 -1.339147713032832e-14    5    3    4    2
 0.005717247031808015    5    3    4    3
 3.352244845413027e-13    5    3    4    4
 2.645247281786495e-13    5    3    5    1
 -3.067810322843563e-13    5    3    5    2
 0.02092824256330914    5    3    5    3
 1.763222364838687e-13    5    3    5    4
 7.459480845524024e-13    5    3    5    5
 0.04000760115098984    5    3    6    1
 -0.01951429521019992    5    3    6    2
 3.064685518940699e-13    5    3    6    3
 0.02666472033163648    5    3    6    4
 0.03030181714793812    5    3    6    5
 4.863579023367745e-13    5    3    6    6
 1.402602350078627e-05    5    4    1    1
 -0.07142393355972014    5    4    2    1
 -0.02810095113125996    5    4    2    2
 3.056487931286534e-13    5    4    3    1
 -6.55531008642562e-14    5    4    3    2
 0.02809621129076345    5    4    3    3
 6.683066674322479e-06    5    4    4    1
 0.01343831225823145    5    4    4    2
 -5.756689628094411e-14    5    4    4    3
 1.529871670511405e-05    5    4    4    4
 0.07569274368776388    5    4    5    1
 0.02667089444830031    5    4    5    2
 1.765578503209103e-13    5    4    5    3
 0.07391164034038322    5    4    5    4
 -0.06437486974678552    5    4    5    5
 -1.764448986592603e-13    5    4    6    2
 0.02667348911427757    5    4    6    3
 7.00944583244811e-13    5    4    6    5
 0.06437786769762803    5    4    6    6
 0.6321267794552509    5    5    1    1
 0.06403063888676117    5    5    2    1
 0.4864375856147833    5    5    2    2
 4.233043788158653e-13    5    5    3    1
 -2.982774703066475e-13    5    5    3    2
 0.416773915255507    5    5    3    3
 0.1303251862885885    5    5    4    1
 0.002817781125415808    5    5    4    2
 1.873532338965457e-14    5    5    4    3
 0.4610889060067818    5    5    4    4
 -0.08330847377951892    5    5    5    1
 -0.1743271052119194    5    5    5    2
 7.455668232220825e-13    5    5    5    3
 -0.0643748697467847    5    5    5    4
 0.6646931254061084    5    5    5    5
 9.071991862502488e-13    5    5    6    1
 4.868999484197309e-13    5    5    6    2
 0.1136740548508208    5    5    6    3
 7.010735335586172e-13    5    5    6    4
 0.5182084630739373    5    5    6    6
 3.411867098415728e-13    6    1    2    1
 7.370404521427608e-14    6    1    2    2
 0.07970174350265541    6    1    3    1
 -0.03165134550531447    6    1    3    2
 -7.428426621268373e-14    6    1    3    3
 6.320185031946186e-14    6    1    4    2
 0.0147559865928518    6    1    4    3
 -2.646113654298291e-13    6    1    5    2
 0.04000760115098986    6    1    5    3
 9.072755689399843e-13    6    1    5    5
 0.1104836698935692    6    1    6    1
 -0.04002527538539787    6    1    6    2
 -2.643689330285597e-13    6    1    6    3
 0.07569971594881446    6    1    6    4
 0.0832936755929185    6    1    6    5
 -9.0767368569363e-13    6    1    6    6
 7.021242373893012e-13    6    2    1    1
 6.669418223438381e-14    6    2    2    1
 3.495828263782008e-13    6    2    2    2
 -0.02859452539596654    6    2    3    1
 0.008549596909516594    6    2    3    2
 2.758526872878184e-13    6    2    3    3
 2.770728197753768e-13    6    2    4    1
 1.331076685489139e-14    6    2    4    2
 -0.005716120430640633    6    2    4    3
 3.35259037705209e-13    6    2    4    4
 -2.645818864140155e-13    6    2    5    1
 -3.061862565829294e-13    6    2    5    2
 -0.01951429521019903    6    2    5    3
 -1.765186975254633e-13    6    2    5    4
 4.868318255492932e-13    6    2    5    5
 -0.04002527538539783    6    2    6    1
 0.02094085600420054    6    2    6    2
 3.065801664221978e-13    6    2    6    3
 -0.02667893000107405    6    2    6    4
 -0.03031736262676063    6    2    6    5
 7.464106068416859e-13    6    2    6    6
 0.1640326651213656    6    3    1    1
 -0.02859670583807837    6    3    2    1
 0.06447644422750977    6    3    2    2
 -6.655297727643821e-14    6    3    3    1
 3.662322023316963e-14    6    3    3    2
 0.0815588575586276    6    3    3    3
 0.0647178918744522    6    3    4    1
 -0.00572331568697089    6    3    4    2
 -1.317473476608513e-14    6    3    4    3
 0.07827849054161032    6    3    4    4
 0.04001497750244039    6    3    5    1
 -0.0520576003653079    6    3    5    2
 3.061210168593522e-13    6    3    5    3
 0.02667348911427764    6    3    5    4
 0.1136740548508207    6    3    5    5
 -2.646768318602615e-13    6    3    6    1
 3.065479179272687e-13    6    3    6    2
 0.09250694902904912    6    3    6    3
 -1.762469543724543e-13    6    3    6    4
 1.30019989548698e-13    6    3    6    5
 0.1743270189364491    6    3    6    6
 3.05802434817657e-13    6    4    2    1
 6.561292932047979e-14    6    4    2    2
 0.07141276083293625    6    4    3    1
 -0.02809272619581329    6    4    3    2
 -6.617778135732002e-14    6    4    3    3
 -5.730182909184237e-14    6    4    4    2
 -0.01344518222189709    6    4    4    3
 -1.761287331062431e-13    6    4    5    2
 0.02666472033163656    6    4    5    3
 7.011421970697955e-13    6    4    5    5
 0.07569971594881449    6    4    6    1
 -0.02667893000107376    6    4    6    2
 -1.759764094037375e-13    6    4    6    3
 0.07390984546833353    6    4    6    4
 0.06436064531015109    6    4    6    5
 -7.012612686177838e-13    6    4    6    6
 -4.234252143004056e-13    6    5    2    1
 -2.983202241407022e-13    6    5    2    2
 0.06401080135649449    6    5    3    1
 -0.03480430952170219    6    5    3    2
 2.97551919398428e-13    6    5    3    3
 -1.87795893513961e-14    6    5    4    2
 0.002820640497150804    6    5    4    3
 9.073754627344153e-13    6    5    5    1
 1.300796133067925e-13    6    5    5    2
 0.03030181714793889    6    5    5    3
 7.010353987876103e-13    6    5    5    4
 0.08329367559291857    6    5    6    1
 -0.03031736262676042    6    5    6    2
 1.301693882670131e-13    6    5    6    3
 0.06436064531015098    6    5    6    4
 0.07322031961588822    6    5    6    5
 0.6321777799505534    6    6    1    1
 -0.06404468833476326    6    6    2    1
 0.416811381385486    6    6    2    2
 -4.234385641021463e-13    6    6    3    1
 2.985510669776986e-13    6    6    3    2
 0.4864191557472402    6    6    3    3
 0.13034622616189    6    6    4    1
 -0.002835493219937896    6    6    4    2
 -1.869142287958903e-14    6    6    4    3
 0.4611245185049352    6    6    4    4
 0.08330473241860706    6    6    5    1
 -0.1136995664819255    6    6    5    2
 4.876506767254467e-13    6    6    5    3
 0.06437786769762761    6    6    5    4
 0.5182084630739373    6    6    5    5
 -9.075361880502917e-13    6    6    6    1
 7.45752865771483e-13    6    6    6    2
 0.1743270189364491    6    6    6    3
 -7.012723456141709e-13    6    6    6    4
 -1.090640103305018e-15    6    6    6    5
 0.6647472427048912    6    6    6    6
 -1.984341852475305    1    1  0  0
 2.038001615385866e-05    2    1  0  0
 -1.041931373290614    2    2  0  0
 -1.041841658773259    3    3  0  0
 -0.1517791081774849    4    1  0  0
 1.057847328164109e-05    4    2  0  0
 -0.5556355217356747    4    4  0  0
 -1.186785549651532e-05    5    1  0  0
 0.24837089193504    5    2  0  0
 -1.06306484233691e-12    5    3  0  0
 -2.043022497381806e-05    5    4  0  0
 -0.2138979888759885    5    5  0  0
 -1.06308246818643e-12    6    2  0  0
 -0.2483643827452741    6    3  0  0
 -0.2137959269163349    6    6  0  0
 1.986525862467585  0  0  0  0
