 &FCI NORB=   6,NELEC= 2,MS2=0,
  ORBSYM=1,1,1,1,1,1,
  ISYM=1,
 &END
 0.7145839130426629    1    1    1    1
 -2.038141070123331e-05    1    1    2    1
 0.4843099289518227    1    1    2    2
 0.4842889982327192    1    1    3    3
 0.1517803564758596    1    1    4    1
 -9.25912896460046e-06    1    1    4    2
 0.5015486441413314    1    1    4    4
 1.186679237385655e-05    1    1    5    1
 -0.1640383601849623    1    1    5    2
 1.463886107865099e-12    1    1    5    3
 1.402602351915395e-05    1    1    5    4
 0.632126779473324    1    1    5    5
 1.463210037264477e-12    1    1    6    2
 0.1640326651210096    1    1    6    3
 0.6321777799685989    1    1    6    6
 -2.038141070119471e-05    2    1    1    1
 0.08561326257125362    2    1    2    1
 0.03351070675957196    2    1    2    2
 -5.015216426510675e-13    2    1    3    2
 -0.03350976565980848    2    1    3    3
 -7.939319930068758e-06    2    1    4    1
 -0.019594714101223    2    1    4    2
 -1.853073696333682e-05    2    1    4    4
 -0.07970662399206946    2    1    5    1
 -0.02858792887219029    2    1    5    2
 1.729620150950089e-13    2    1    5    3
 -0.07142393355391666    2    1    5    4
 0.06403063888608283    2    1    5    5
 7.110952721671847e-13    2    1    6    1
 -1.730787369557863e-13    2    1    6    2
 -0.02859670583614208    2    1    6    3
 6.372729383110331e-13    2    1    6    4
 -1.84246748995516e-13    2    1    6    5
 -0.0640446883340674    2    1    6    6
 0.4843099289518231    2    2    1    1
 0.03351070675957164    2    2    2    1
 0.4376570786696107    2    2    2    2
 -5.01487000109638e-13    2    2    3    1
 0.3730822471314609    2    2    3    3
 0.05149995215492401    2    2    4    1
 -0.01152067813838809    2    2    4    2
 1.725305715812295e-13    2    2    4    3
 0.3927295542488615    2    2    4    4
 -0.03165553193559948    2    2    5    1
 -0.08157900709968555    2    2    5    2
 5.746304577439078e-13    2    2    5    3
 -0.02810095112829031    2    2    5    4
 0.4864375856092157    2    2    5    5
 -1.915601531171869e-13    2    2    6    1
 7.279725385125115e-13    2    2    6    2
 0.06447644422307537    2    2    6    3
 -1.701631865360809e-13    2    2    6    4
 -6.21130768962526e-13    2    2    6    5
 0.4168113813825338    2    2    6    6
 -5.016527884356765e-13    3    1    2    2
 0.08559533011780614    3    1    3    1
 -0.03349963875512593    3    1    3    2
 5.018760182341455e-13    3    1    3    3
 -0.01960732954477694    3    1    4    3
 7.110917569618151e-13    3    1    5    1
 1.728024460179809e-13    3    1    5    2
 0.02857892244653566    3    1    5    3
 6.371240796442383e-13    3    1    5    4
 1.837690304628401e-13    3    1    5    5
 0.07970174350462224    3    1    6    1
 -0.02859452539402799    3    1    6    2
 1.726591756059784e-13    3    1    6    3
 0.07141276082714994    3    1    6    4
 0.06401080135579301    3    1    6    5
 -1.835166486522296e-13    3    1    6    6
 -5.016230423214839e-13    3    2    2    1
 -0.03349963875512586    3    2    3    1
 0.03227085039439243    3    2    3    2
 1.722657582115967e-13    3    2    4    2
 0.01151763060621394    3    2    4    3
 1.912786894971075e-13    3    2    5    1
 7.645038239738291e-14    3    2    5    2
 -0.00854115621899117    3    2    5    3
 1.698691728413861e-13    3    2    5    4
 -6.211660960993612e-13    3    2    5    5
 -0.03165134550480562    3    2    6    1
 0.008549596908225036    3    2    6    2
 7.636339700596209e-14    3    2    6    3
 -0.02809272619287858    3    2    6    4
 -0.0348043095203979    3    2    6    5
 6.206541171953178e-13    3    2    6    6
 0.484288998232719    3    3    1    1
 -0.03350976565980859    3    3    2    1
 0.3730822471314612    3    3    2    2
 5.015369009847766e-13    3    3    3    1
 0.4376268480355985    3    3    3    3
 0.05148854415386992    3    3    4    1
 0.0115131916117539    3    3    4    2
 -1.724449461538949e-13    3    3    4    3
 0.3927288548664792    3    3    4    4
 0.03164554135106186    3    3    5    1
 -0.06447206757260843    3    3    5    2
 7.273389800258587e-13    3    3    5    3
 0.02809621128782771    3    3    5    4
 0.4167739152525577    3    3    5    5
 1.914530900963465e-13    3    3    6    1
 5.746618225113598e-13    3    3    6    2
 0.08155885755161936    3    3    6    3
 1.698069259226752e-13    3    3    6    4
 6.205326635208576e-13    3    3    6    5
 0.4864191557416778    3    3    6    6
 0.1517803564758595    4    1    1    1
 -7.939319930076348e-06    4    1    2    1
 0.05149995215492385    4    1    2    2
 0.0514885441538699    4    1    3    3
 0.07688225891421857    4    1    4    1
 -7.763164148778812e-06    4    1    4    2
 0.06865869536609112    4    1    4    4
 7.622867192392862e-06    4    1    5    1
 -0.06472091646526558    4    1    5    2
 5.772619571963956e-13    4    1    5    3
 6.683066698398056e-06    4    1    5    4
 0.13032518628707    4    1    5    5
 5.775431033735072e-13    4    1    6    2
 0.06471789186939064    4    1    6    3
 0.1303462261603907    4    1    6    6
 -9.25912896472471e-06    4    2    1    1
 -0.01959471410122296    4    2    2    1
 -0.01152067813838786    4    2    2    2
 1.723581291776383e-13    4    2    3    2
 0.01151319161175404    4    2    3    3
 -7.76316414871441e-06    4    2    4    1
 0.03886582780005089    4    2    4    2
 1.837308913806186e-06    4    2    4    4
 -0.01476652956003386    4    2    5    1
 -0.00571960075617069    4    2    5    2
 3.466711868693585e-14    4    2    5    3
 0.01343831226200581    4    2    5    4
 0.002817781121779724    4    2    5    5
 1.316801090785692e-13    4    2    6    1
 -3.46111918325577e-14    4    2    6    2
 -0.005723315684846289    4    2    6    3
 -1.201198578838245e-13    4    2    6    4
 -8.329331766136512e-15    4    2    6    5
 -0.002835493216343945    4    2    6    6
 1.723604214915308e-13    4    3    2    2
 -0.01960732954477694    4    3    3    1
 0.01151763060621385    4    3    3    2
 -1.726046883236732e-13    4    3    3    3
 0.03887540313357049    4    3    4    3
 1.317392615731697e-13    4    3    5    1
 3.478008936889671e-14    4    3    5    2
 0.005717247029676001    4    3    5    3
 -1.196662390295875e-13    4    3    5    4
 8.291796509975642e-15    4    3    5    5
 0.01475598658706423    4    3    6    1
 -0.005716120428513879    4    3    6    2
 3.476207103690075e-14    4    3    6    3
 -0.01344518222565827    4    3    6    4
 0.002820640493553527    4    3    6    5
 -8.273207042890161e-15    4    3    6    6
 0.5015486441413313    4    4    1    1
 -1.853073696321886e-05    4    4    2    1
 0.3927295542488608    4    4    2    2
 0.3927288548664795    4    4    3    3
 0.06865869536609115    4    4    4    1
 1.837308913732461e-06    4    4    4    2
 0.406928411658133    4    4    4    4
 1.079818725015387e-05    4    4    5    1
 -0.07827892439324617    4    4    5    2
 6.979516225186451e-13    4    4    5    3
 1.529871672879043e-05    4    4    5    4
 0.4610889060032521    4    4    5    5
 6.983904828029806e-13    4    4    6    2
 0.07827849053548661    4    4    6    3
 0.4611245185014242    4    4    6    6
 1.186679237386154e-05    5    1    1    1
 -0.07970662399206943    5    1    2    1
 -0.03165553193559907    5    1    2    2
 7.111075081172231e-13    5    1    3    1
 1.912129677885018e-13    5    1    3    2
 0.03164554135106165    5    1    3    3
 7.622867192375928e-06    5    1    4    1
 -0.0147665295600338    5    1    4    2
 1.317032359679924e-13    5    1    4    3
 1.079818725015298e-05    5    1    4    4
 0.1104695277653722    5    1    5    1
 0.04001963723804354    5    1    5    2
 1.148283807008912e-13    5    1    5    3
 0.07569274368918917    5    1    5    4
 -0.08330847378590872    5    1    5    5
 -1.148370965170344e-13    5    1    6    2
 0.04001497750258241    5    1    6    3
 9.82631557487162e-13    5    1    6    5
 0.08330473242493981    5    1    6    6
 -0.1640383601849624    5    2    1    1
 -0.02858792887219019    5    2    2    1
 -0.08157900709968573    5    2    2    2
 1.729215227096915e-13    5    2    3    1
 7.611344450701358e-14    5    2    3    2
 -0.06447206757260832    5    2    3    3
 -0.06472091646526552    5    2    4    1
 -0.005719600756170382    5    2    4    2
 3.471129265176337e-14    5    2    4    3
 -0.07827892439324602    5    2    4    4
 0.0400196372380436    5    2    5    1
 0.09252280473779981    5    2    5    2
 -6.386841297403579e-13    5    2    5    3
 0.0266708944461061    5    2    5    4
 -0.1743271052121298    5    2    5    5
 -1.152008818596337e-13    5    2    6    1
 -6.385986912589508e-13    5    2    6    2
 -0.0520576003623558    5    2    6    3
 -7.663461402628763e-14    5    2    6    4
 2.701920300628083e-13    5    2    6    5
 -0.1136995664820012    5    2    6    6
 1.463460764976291e-12    5    3    1    1
 1.728516041805666e-13    5    3    2    1
 5.755705675445844e-13    5    3    2    2
 0.02857892244653576    5    3    3    1
 -0.008541156218991326    5    3    3    2
 7.274494041688466e-13    5    3    3    3
 5.773383193807652e-13    5    3    4    1
 3.466056387397502e-14    5    3    4    2
 0.005717247029675963    5    3    4    3
 6.98428233491145e-13    5    3    4    4
 1.150391833416571e-13    5    3    5    1
 -6.383908371373393e-13    5    3    5    2
 0.0209282425620049    5    3    5    3
 7.685296417215703e-14    5    3    5    4
 1.555158630475374e-12    5    3    5    5
 0.04000760115113811    5    3    6    1
 -0.01951429520889431    5    3    6    2
 6.390390445920839e-13    5    3    6    3
 0.02666472032946681    5    3    6    4
 0.03030181714799827    5    3    6    5
 1.01417900556297e-12    5    3    6    6
 1.402602351915829e-05    5    4    1    1
 -0.07142393355391663    5    4    2    1
 -0.02810095112829018    5    4    2    2
 6.372070362554844e-13    5    4    3    1
 1.697965881801346e-13    5    4    3    2
 0.02809621128782787    5    4    3    3
 6.683066698406947e-06    5    4    4    1
 0.01343831226200582    5    4    4    2
 -1.19854957394327e-13    5    4    4    3
 1.529871672892313e-05    5    4    4    4
 0.07569274368918906    5    4    5    1
 0.02667089444610586    5    4    5    2
 7.662171798263e-14    5    4    5    3
 0.07391164033478767    5    4    5    4
 -0.06437486974582524    5    4    5    5
 -7.64234505629656e-14    5    4    6    2
 0.02667348911210838    5    4    6    3
 7.593260835782155e-13    5    4    6    5
 0.0643778676966999    5    4    6    6
 0.632126779473323    5    5    1    1
 0.06403063888608276    5    5    2    1
 0.4864375856092157    5    5    2    2
 1.839324284122238e-13    5    5    3    1
 -6.20549162479175e-13    5    5    3    2
 0.416773915252558    5    5    3    3
 0.1303251862870701    5    5    4    1
 0.002817781121779717    5    5    4    2
 8.187636203075753e-15    5    5    4    3
 0.4610889060032526    5    5    4    4
 -0.08330847378590892    5    5    5    1
 -0.1743271052121296    5    5    5    2
 1.555577100769976e-12    5    5    5    3
 -0.06437486974582524    5    5    5    4
 0.6646931254270648    5    5    5    5
 9.824235361559246e-13    5    5    6    1
 1.013712717852704e-12    5    5    6    2
 0.1136740548508988    5    5    6    3
 7.594916701560627e-13    5    5    6    4
 0.5182084630875695    5    5    6    6
 7.110875001765756e-13    6    1    2    1
 -1.911629819373912e-13    6    1    2    2
 0.07970174350462225    6    1    3    1
 -0.03165134550480561    6    1    3    2
 1.915203577967786e-13    6    1    3    3
 1.317346837169578e-13    6    1    4    2
 0.01475598658706421    6    1    4    3
 -1.149099215345363e-13    6    1    5    2
 0.04000760115113815    6    1    5    3
 9.82900899744267e-13    6    1    5    5
 0.110483669903116    6    1    6    1
 -0.04002527538554358    6    1    6    2
 -1.147548161917016e-13    6    1    6    3
 0.07569971595025474    6    1    6    4
 0.08329367559925846    6    1    6    5
 -9.825826125163852e-13    6    1    6    6
 1.463397990987467e-12    6    2    1    1
 -1.730859018896354e-13    6    2    2    1
 7.274320646947331e-13    6    2    2    2
 -0.02859452539402797    6    2    3    1
 0.008549596908226244    6    2    3    2
 5.756457605852561e-13    6    2    3    3
 5.774726706595997e-13    6    2    4    1
 -3.462702612028879e-14    6    2    4    2
 -0.005716120428514005    6    2    4    3
 6.983620620684497e-13    6    2    4    4
 -1.15058240282411e-13    6    2    5    1
 -6.387676900231787e-13    6    2    5    2
 -0.01951429520889336    6    2    5    3
 -7.676935488155563e-14    6    2    5    4
 1.013961902398087e-12    6    2    5    5
 -0.04002527538554365    6    2    6    1
 0.02094085600289304    6    2    6    2
 6.382347389855674e-13    6    2    6    3
 -0.0266789299988966    6    2    6    4
 -0.03031736262681632    6    2    6    5
 1.555736598005794e-12    6    2    6    6
 0.1640326651210094    6    3    1    1
 -0.02859670583614214    6    3    2    1
 0.06447644422307605    6    3    2    2
 1.729883046615943e-13    6    3    3    1
 7.660205927934179e-14    6    3    3    2
 0.08155885755161904    6    3    3    3
 0.06471789186939059    6    3    4    1
 -0.005723315684846089    6    3    4    2
 3.459657151723524e-14    6    3    4    3
 0.07827849053548624    6    3    4    4
 0.04001497750258229    6    3    5    1
 -0.05205760036235518    6    3    5    2
 6.391024215347352e-13    6    3    5    3
 0.0266734891121083    6    3    5    4
 0.1136740548508992    6    3    5    5
 -1.147057547178634e-13    6    3    6    1
 6.380453178769051e-13    6    3    6    2
 0.09250694902348691    6    3    6    3
 -7.656496469635716e-14    6    3    6    4
 2.703463001339348e-13    6    3    6    5
 0.1743270189366493    6    3    6    6
 6.372050666546478e-13    6    4    2    1
 -1.699502313586374e-13    6    4    2    2
 0.07141276082714992    6    4    3    1
 -0.02809272619287867    6    4    3    2
 1.698469006180614e-13    6    4    3    3
 -1.199419416307538e-13    6    4    4    2
 -0.01344518222565855    6    4    4    3
 -7.660179658529438e-14    6    4    5    2
 0.02666472032946691    6    4    5    3
 7.590042071396507e-13    6    4    5    5
 0.07569971595025467    6    4    6    1
 -0.02667892999889673    6    4    6    2
 -7.672575283717845e-14    6    4    6    3
 0.07390984546277203    6    4    6    4
 0.06436064530921298    6    4    6    5
 -7.591454933338949e-13    6    4    6    6
 -1.840824957489844e-13    6    5    2    1
 -6.219588580959006e-13    6    5    2    2
 0.06401080135579293    6    5    3    1
 -0.03480430952039673    6    5    3    2
 6.218073249944515e-13    6    5    3    3
 -8.153767029126378e-15    6    5    4    2
 0.002820640493553133    6    5    4    3
 9.825417379963774e-13    6    5    5    1
 2.698622157319898e-13    6    5    5    2
 0.03030181714799851    6    5    5    3
 7.589334323617221e-13    6    5    5    4
 0.08329367559925838    6    5    6    1
 -0.03031736262681645    6    5    6    2
 2.699481567292515e-13    6    5    6    3
 0.06436064530921337    6    5    6    4
 0.07322031961951445    6    5    6    5
 1.483998190654134e-15    6    5    6    6
 0.6321777799685997    6    6    1    1
 -0.06404468833406723    6    6    2    1
 0.4168113813825322    6    6    2    2
 -1.837368387524826e-13    6    6    3    1
 6.20788159277648e-13    6    6    3    2
 0.4864191557416782    6    6    3    3
 0.1303462261603908    6    6    4    1
 -0.002835493216344159    6    6    4    2
 -8.326772541450776e-15    6    6    4    3
 0.461124518501425    6    6    4    4
 0.08330473242493998    6    6    5    1
 -0.1136995664820021    6    6    5    2
 1.013839276023722e-12    6    6    5    3
 0.06437786769670084    6    6    5    4
 0.5182084630875688    6    6    5    5
 -9.824828726188892e-13    6    6    6    1
 1.556162534377209e-12    6    6    6    2
 0.1743270189366505    6    6    6    3
 -7.595718249264335e-13    6    6    6    4
 1.040026403518985e-15    6    6    6    5
 0.6647472427257961    6    6    6    6
 -1.984341852484874    1    1  0  0
 2.03800161855715e-05    2    1  0  0
 -1.041931373275704    2    2  0  0
 -1.041841658758369    3    3  0  0
 -0.1517791081324471    4    1  0  0
 1.057847334581424e-05    4    2  0  0
 -0.5556355217261063    4    4  0  0
 -1.186785548198233e-05    5    1  0  0
 0.2483708919598945    5    2  0  0
 -2.215982330707553e-12    5    3  0  0
 -2.043022495626352e-05    5    4  0  0
 -0.2138979888908993    5    5  0  0
 -2.215717924159542e-12    6    2  0  0
 -0.2483643827700987    6    3  0  0
 -0.2137959269312268    6    6  0  0
 1.986525862467585  0  0  0  0
