 &FCI NORB=   5,NELEC= 3,MS2=1,
  ORBSYM=1,1,1,1,1,
  ISYM=1,
 &END
 1.658594447328039    1    1    1    1
 -0.1845702545109873    1    1    2    1
 0.4005215472333643    1    1    2    2
 0.3963288180970448    1    1    3    3
 0.3963288180970448    1    1    4    4
 0.3963288180970448    1    1    5    5
 -0.1845702545109873    2    1    1    1
 0.0312650271429837    2    1    2    1
 -0.01027429214039111    2    1    2    2
 -0.006527104518685654    2    1    3    3
 -0.006527104518685654    2    1    4    4
 -0.006527104518685654    2    1    5    5
 0.4005215472333643    2    2    1    1
 -0.01027429214039111    2    2    2    1
 0.2824248504420147    2    2    2    2
 0.2856701811428154    2    2    3    3
 0.2856701811428154    2    2    4    4
 0.2856701811428154    2    2    5    5
 0.009832373224230235    3    1    3    1
 0.01369361674497012    3    1    3    2
 0.01369361674497012    3    2    3    1
 0.06079003360141257    3    2    3    2
 0.3963288180970448    3    3    1    1
 -0.006527104518685677    3    3    2    1
 0.2856701811428154    3    3    2    2
 0.3129455111594092    3    3    3    3
 0.2792072321320272    3    3    4    4
 0.2792072321320272    3    3    5    5
 0.009832373224230235    4    1    4    1
 0.01369361674497012    4    1    4    2
 0.01369361674497012    4    2    4    1
 0.06079003360141257    4    2    4    2
 0.01686913951369104    4    3    4    3
 0.3963288180970448    4    4    1    1
 -0.006527104518685677    4    4    2    1
 0.2856701811428154    4    4    2    2
 0.2792072321320272    4    4    3    3
 0.3129455111594092    4    4    4    4
 0.2792072321320272    4    4    5    5
 0.009832373224230235    5    1    5    1
 0.01369361674497012    5    1    5    2
 0.01369361674497012    5    2    5    1
 0.06079003360141257    5    2    5    2
 0.01686913951369104    5    3    5    3
 0.01686913951369104    5    4    5    4
 0.3963288180970448    5    5    1    1
 -0.006527104518685677    5    5    2    1
 0.2856701811428154    5    5    2    2
 0.2792072321320272    5    5    3    3
 0.2792072321320272    5    5    4    4
 0.3129455111594092    5    5    5    5
 -4.396974121093804    1    1  0  0
 0.1948445384959943    2    1  0  0
 -0.9499502537452638    2    2  0  0
 -0.8775791414291553    3    3  0  0
 -0.8775791414291553    4    4  0  0
 -0.8775791414291553    5    5  0  0
 0  0  0  0  0
