&FCI NORB= 4, NELEC= 4, MS2= 0, ISYM= 1,
 ORBSYM=1,1,1,1,
 /
! Two-electron integrals (i j | k l) in chemists' notation
  1.0000000000    1    1    1    1
  0.5000000000    2    1    1    1
  0.5000000000    1    2    1    1
  0.3333333333    2    2    1    1
  0.3333333333    3    1    1    1
  0.3333333333    1    3    1    1
  0.2500000000    3    2    1    1
  0.2500000000    2    3    1    1
  0.2000000000    3    3    1    1
  0.5000000000    2    1    2    1
  0.5000000000    1    2    2    1
  0.3333333333    2    2    2    1
  0.3333333333    3    1    2    1
  0.3333333333    1    3    2    1
  1.0000000000    2    2    2    2
  0.5000000000    3    2    2    2
  0.5000000000    2    3    2    2
  0.3333333333    3    3    2    2
  0.5000000000    4    1    1    1
  0.3333333333    4    2    1    1
  0.2500000000    4    3    1    1
  0.3333333333    4    1    2    1
  0.2500000000    4    2    2    1
  0.5000000000    4    2    2    2
  0.3333333333    4    3    2    2
  0.2000000000    4    4    1    1
  0.1666666667    4    4    2    1
  0.3333333333    4    4    2    2
  0.3333333333    3    1    3    1
  0.2500000000    3    2    3    1
  0.2000000000    3    3    3    1
  0.2500000000    3    2    3    2
  0.2000000000    3    3    3    2
  1.0000000000    3    3    3    3
  0.3333333333    4    1    3    1
  0.2500000000    4    2    3    1
  0.2000000000    4    3    3    1
  0.2500000000    4    2    3    2
  0.2000000000    4    3    3    2
  0.5000000000    4    3    3    3
  0.2000000000    4    4    3    1
  0.1666666667    4    4    3    2
  0.3333333333    4    4    3    3
  0.5000000000    4    1    4    1
  0.3333333333    4    2    4    1
  0.2500000000    4    3    4    1
  0.3333333333    4    2    4    2
  0.2500000000    4    3    4    2
  0.5000000000    4    3    4    3
  1.0000000000    4    4    4    4
! One-electron integrals h[i,j]
 -1.0000000000    1    1    0    0
 -0.5000000000    2    1    0    0
 -0.5000000000    1    2    0    0
 -1.2500000000    2    2    0    0
 -0.3333333333    3    1    0    0
 -0.3333333333    1    3    0    0
 -0.6666666667    3    2    0    0
 -0.6666666667    2    3    0    0
 -1.3333333333    3    3    0    0
 -0.2500000000    4    1    0    0
 -0.2500000000    1    4    0    0
 -0.5000000000    4    2    0    0
 -0.5000000000    2    4    0    0
 -0.7500000000    4    3    0    0
 -0.7500000000    3    4    0    0
 -1.3750000000    4    4    0    0
! Nuclear repulsion energy
  0.5291772109    0    0    0    0
