 &FCI NORB=   2,NELEC= 2,MS2=0,
  ORBSYM=1,1,
  ISYM=1,
 &END
 0.9431353615517649    1    1    1    1
 -0.1729325628806335    1    1    2    1
 0.6609130373027623    1    1    2    2
 -0.1729325628806334    2    1    1    1
 0.1455753328487729    2    1    2    1
 0.03702844830113509    2    1    2    2
 0.6609130373027621    2    2    1    1
 0.03702844830113511    2    2    2    1
 0.7526073431123804    2    2    2    2
 -2.577250250849683    1    1  0  0
 0.1729344357627037    2    1  0  0
 -1.347485836317474    2    2  0  0
 1.36986301369863  0  0  0  0
