 &FCI NORB=   2,NELEC= 2,MS2=0,
  ORBSYM=1,1,
  ISYM=1,
 &END
 0.6745940843233693    1    1    1    1
 0.6635639912205484    1    1    2    2
 0.1812579147931084    2    1    2    1
 0.6635639912205482    2    2    1    1
 0.6974953466801819    2    2    2    2
 -1.252797061835817    1    1  0  0
 -0.4756022993742511    2    2  0  0
 0.7142857142857143  0  0  0  0
