 &FCI NORB=2,NELEC=2,MS2=0,
  ORBSYM=1,1,
  ISYM=1,
 &END
  6.7464794430E-01   1   1   1   1
  6.6347446744E-01   2   1   1   1
  6.9739587466E-01   2   2   1   1
  6.6347446744E-01   1   1   2   1
  6.6390130198E-01   2   1   2   1
  6.9739587466E-01   1   1   2   2
  6.6390130198E-01   2   2   2   1
  7.0540771088E-01   2   2   2   2
 -1.2520906164E+00   1   1   0   0
 -4.7529126080E-01   2   1   0   0
 -4.7529126080E-01   1   2   0   0
 -4.7663062857E-01   2   2   0   0
  7.1599579942E-01   0   0   0   0
